/*--------------------------------*- C++ -*----------------------------------*\
  =========                 |
  \\      /  F ield         | OpenFOAM: The Open Source CFD Toolbox
   \\    /   O peration     | Website:  https://openfoam.org
    \\  /    A nd           | Version:  7
     \\/     M anipulation  |
\*---------------------------------------------------------------------------*/
FoamFile
{
    version     2.0;
    format      ascii;
    class       volScalarField;
    location    "500";
    object      Co;
}
// * * * * * * * * * * * * * * * * * * * * * * * * * * * * * * * * * * * * * //

dimensions      [0 0 0 0 0 0 0];

internalField   nonuniform List<scalar> 
158652
(
4.31055
4.173
4.17881
4.17953
4.18222
4.18593
4.18058
4.18368
4.18895
4.19004
4.18517
4.18073
4.19127
4.18314
4.19566
4.18269
4.18382
4.18449
4.18513
4.18554
4.18555
4.18513
4.17747
4.16398
4.16417
4.17135
4.1788
4.18077
4.18149
4.18924
4.19161
4.19031
4.20456
4.20197
4.19537
4.21506
4.21345
4.20278
4.20111
4.18508
4.18622
4.18441
4.18408
4.18399
4.18397
4.19088
4.31577
4.17667
4.18494
4.1809
4.18501
4.19149
4.18651
4.18849
4.19307
4.19961
4.19246
4.18692
4.18433
4.18241
4.18337
4.1826
4.18381
4.18479
4.18548
4.18594
4.18592
4.18468
4.17621
4.16569
4.17406
4.17899
4.18339
4.18228
4.18303
4.19133
4.19076
4.19045
4.20289
4.20757
4.19525
4.21504
4.209
4.2053
4.19638
4.18565
4.18614
4.18464
4.18419
4.18402
4.18397
4.19049
4.30112
4.17831
4.18001
4.17917
4.18321
4.19421
4.19255
4.19021
4.18542
4.1912
4.18655
4.18524
4.18508
4.18254
4.18357
4.18415
4.18271
4.1858
4.18716
4.1876
4.18756
4.18544
4.18615
4.17598
4.17481
4.18213
4.18164
4.18101
4.18604
4.19013
4.18946
4.18931
4.19354
4.21183
4.19911
4.19967
4.2061
4.19705
4.18592
4.18557
4.18517
4.18451
4.18419
4.184
4.184
4.19004
4.29128
4.17678
4.17653
4.1765
4.17958
4.19017
4.19159
4.19165
4.18935
4.18732
4.18336
4.18418
4.18836
4.18375
4.18393
4.18576
4.18276
4.18603
4.18822
4.18978
4.1896
4.18641
4.18828
4.18772
4.17902
4.18639
4.17608
4.18571
4.18919
4.18924
4.18873
4.18808
4.18773
4.20138
4.20744
4.18679
4.19762
4.18607
4.18563
4.18491
4.18481
4.18437
4.18414
4.18399
4.18402
4.18997
4.28763
4.17515
4.17485
4.17194
4.17265
4.18531
4.18696
4.19067
4.19285
4.18983
4.18194
8.37054
8.37194
8.36722
8.36859
8.36294
8.367
8.36777
8.37108
8.37241
8.37659
8.37243
8.3722
8.37206
8.37309
8.37183
4.17838
4.19016
4.19149
4.19091
4.19065
4.18889
4.18958
4.1897
4.19876
4.1855
4.18608
4.18562
4.18496
4.18466
4.18453
4.18428
4.18406
4.18405
4.18395
4.18998
4.28902
4.17432
4.17332
4.17089
4.17084
4.17345
4.18595
4.19155
4.18703
4.18598
8.36867
8.36882
8.36977
8.36942
8.37069
8.36687
8.36379
8.37436
8.37354
8.3768
8.37278
8.37296
8.37251
8.37195
8.37207
8.37195
8.37066
4.18616
4.19133
4.18986
4.18938
4.18884
4.18929
4.1882
4.18874
4.18615
4.18561
4.18485
4.18465
4.18453
4.18434
4.18414
4.1841
4.18405
4.184
4.18999
4.29401
4.17496
4.17454
4.17227
4.1707
4.16508
4.18593
4.18766
4.18564
4.18693
8.36783
8.36832
8.36935
8.3696
8.36994
8.36966
8.36413
8.35444
8.3744
8.37237
8.37252
8.37296
8.37243
8.37176
8.3716
8.3708
8.37097
4.18374
4.18966
4.18933
4.18903
4.18873
4.18851
4.18827
4.18853
4.18649
4.18497
4.1846
4.18463
4.18435
4.18428
4.18415
4.1841
4.184
4.18403
4.18998
4.29914
4.17496
4.1745
4.17173
4.16724
4.16445
4.18592
4.1887
4.18526
4.18601
8.3677
8.36814
8.36895
8.36941
8.36985
8.3697
8.36396
8.34436
8.3714
8.37268
8.37272
8.37306
8.37249
8.37161
8.37149
8.3711
8.37039
4.18331
4.18941
4.18949
4.18905
4.18867
4.18853
4.18806
4.18784
4.18752
4.18485
4.1846
4.18467
4.18429
4.18428
4.18418
4.18409
4.18399
4.18398
4.19001
4.29914
4.17496
4.1745
4.17173
4.16724
4.16445
4.18591
4.1887
4.18526
4.18601
8.36756
8.36798
8.36875
8.3692
8.36948
8.3695
8.36384
8.34401
8.37153
8.37253
8.37271
8.37283
8.37242
8.37155
8.37143
8.3712
8.3705
4.18331
4.18941
4.18949
4.18905
4.18867
4.18853
4.18806
4.18783
4.18752
4.18486
4.18459
4.18466
4.18429
4.18427
4.18417
4.18408
4.18399
4.18398
4.19002
4.29412
4.17495
4.1745
4.17229
4.1707
4.16508
4.18592
4.18767
4.18563
4.18693
8.36785
8.36815
8.36932
8.36959
8.36984
8.3698
8.36427
8.34626
8.37193
8.37246
8.37255
8.37311
8.37256
8.37186
8.37158
8.37089
8.37059
4.18374
4.18967
4.18933
4.18903
4.18873
4.18851
4.18827
4.18853
4.18648
4.18498
4.18461
4.18462
4.18436
4.18427
4.18414
4.18409
4.18399
4.18402
4.18996
4.28963
4.17413
4.17307
4.17087
4.17082
4.17344
4.18595
4.19155
4.18702
4.18597
8.36792
8.36876
8.36943
8.36957
8.36976
8.36993
8.36197
8.3675
8.37603
8.37412
8.37237
8.37303
8.37252
8.3718
8.37171
8.37131
8.37108
4.18616
4.19133
4.18986
4.18938
4.18885
4.18929
4.18819
4.18874
4.18615
4.18561
4.18487
4.18465
4.18454
4.18434
4.18414
4.18408
4.18403
4.18398
4.18998
4.2899
4.17412
4.1732
4.17186
4.17267
4.18527
4.18696
4.19071
4.19282
4.18982
4.18193
8.36947
8.37101
8.3686
8.37178
8.36273
8.36761
8.37137
8.37136
8.37566
8.3749
8.37259
8.37243
8.37229
8.37282
8.37235
4.17839
4.19014
4.19155
4.19092
4.19066
4.18889
4.18959
4.1897
4.19877
4.18547
4.18614
4.18564
4.18498
4.18463
4.18459
4.18429
4.18404
4.18403
4.18393
4.18996
4.29458
4.17589
4.17445
4.1765
4.17958
4.19009
4.19171
4.1916
4.18931
4.18732
4.18336
4.18421
4.18831
4.18377
4.18368
4.18593
4.18252
4.18601
4.18823
4.1897
4.18964
4.18641
4.18828
4.18772
4.17903
4.1864
4.17609
4.18565
4.1892
4.18904
4.18873
4.18826
4.18777
4.20139
4.20745
4.18676
4.19767
4.18608
4.18564
4.18488
4.18482
4.18442
4.18413
4.18397
4.184
4.18995
4.30134
4.17841
4.17476
4.17834
4.183
4.19407
4.1925
4.19004
4.18717
4.19132
4.18655
4.18546
4.18488
4.18232
4.18224
4.1843
4.18372
4.18566
4.18715
4.1876
4.18756
4.18529
4.1863
4.17611
4.17499
4.18204
4.18173
4.18086
4.1858
4.19006
4.1895
4.18949
4.19355
4.21192
4.19921
4.19956
4.20611
4.19701
4.18585
4.18562
4.18514
4.18456
4.1842
4.18399
4.18399
4.19002
4.31823
4.1763
4.17956
4.17665
4.18495
4.19139
4.1862
4.18862
4.19518
4.19974
4.19268
4.18768
4.18461
4.18163
4.18114
4.18291
4.18386
4.1844
4.18544
4.18594
4.18588
4.18438
4.17643
4.16512
4.17545
4.17952
4.18361
4.18221
4.18877
4.19305
4.19038
4.19025
4.20005
4.20937
4.1962
4.21146
4.20401
4.20148
4.19618
4.18587
4.18615
4.18464
4.18419
4.18401
4.18396
4.19048
4.32646
4.17298
4.17658
4.17607
4.18222
4.18593
4.18041
4.18386
4.18929
4.19013
4.18544
4.18423
4.19277
4.17774
4.18144
4.18265
4.18194
4.18392
4.18503
4.18553
4.18556
4.1848
4.17657
4.16052
4.16752
4.17459
4.17899
4.18096
4.19904
4.1943
4.18953
4.18935
4.19947
4.20576
4.19573
4.20881
4.20149
4.1949
4.2009
4.18522
4.18622
4.18442
4.18408
4.18399
4.18396
4.19087
4.30859
4.17625
4.18135
4.17987
4.18465
4.19152
4.18779
4.18841
4.18812
4.19701
4.19534
4.18703
4.19244
4.18245
4.1942
4.18274
4.18543
4.18535
4.18568
4.18629
4.18668
4.18655
4.17788
4.16995
4.17413
4.17971
4.18357
4.18334
4.18383
4.18746
4.19611
4.19113
4.2049
4.21003
4.19659
4.21833
4.21175
4.20693
4.18983
4.18615
4.18673
4.185
4.18441
4.18432
4.18425
4.19507
4.32064
4.18525
4.19318
4.1836
4.1872
4.19644
4.19141
4.1912
4.18412
4.20072
4.1961
4.18662
4.18706
4.18275
4.18391
4.18289
4.18287
4.18497
4.18759
4.18872
4.18921
4.18753
4.17612
4.17158
4.18048
4.18614
4.18491
4.186
4.18663
4.19151
4.19491
4.19263
4.20539
4.21462
4.19864
4.2175
4.20733
4.20399
4.19133
4.1876
4.18867
4.1877
4.18565
4.18538
4.18481
4.20189
4.30657
4.19557
4.19432
4.18544
4.1865
4.19916
4.19614
4.19384
4.17827
4.18934
4.18723
4.18826
4.18693
4.18367
4.18557
4.18899
4.18189
4.18881
4.19373
4.19435
4.19337
4.18656
4.18769
4.18619
4.18474
4.19064
4.18754
4.18813
4.19114
4.193
4.19377
4.19173
4.19642
4.21544
4.20021
4.20136
4.20251
4.19516
4.18819
4.18795
4.19
4.18892
4.18651
4.18585
4.1852
4.20415
4.29144
4.19605
4.18715
4.18484
4.18534
4.19517
4.19554
4.19467
4.19942
8.36438
8.38532
8.37976
8.38467
8.38694
8.35734
8.38424
8.37155
8.36593
8.38076
8.37943
8.37826
8.3492
8.36374
8.36889
8.37095
8.37941
8.3699
8.36883
4.19382
4.19234
4.1954
4.19176
4.19191
4.20512
4.20287
4.18889
4.19576
4.18855
4.18807
4.18807
4.19073
4.18798
4.18624
4.18536
4.18519
4.20295
4.28549
4.19536
4.18443
4.18458
4.18179
4.18921
4.1918
4.19116
8.41742
8.42267
8.37044
8.37913
8.39554
8.38417
8.35094
8.35864
8.35646
8.3599
8.37715
8.38104
8.39681
8.3798
8.3952
8.39083
8.38387
8.38441
8.36933
8.37605
8.36789
8.37016
8.36967
8.37244
8.37093
8.37122
4.19516
4.1883
4.18956
4.18771
4.18727
4.18878
4.18973
4.18689
4.18556
4.18515
4.18498
4.20279
4.28616
4.19568
4.18298
4.18286
4.18113
4.18297
4.1938
8.41107
8.42312
8.41657
8.37969
8.3875
8.40211
8.38388
8.39442
8.35674
8.3488
8.36817
8.38012
8.40075
8.39427
8.38462
8.39037
8.39386
8.39018
8.38314
8.39305
8.3637
8.3731
8.36788
8.36559
8.36618
8.3681
8.36853
8.36859
4.19114
4.18857
4.1868
4.18797
4.18846
4.18734
4.18588
4.18535
4.18513
4.18508
4.20286
4.28868
4.19632
4.18264
4.18239
4.18136
4.18043
4.19428
8.40663
8.40677
8.39193
8.37812
8.38106
8.3825
8.38048
8.37922
8.38239
8.33063
8.31946
8.39644
8.38616
8.38434
8.38576
8.38617
8.38659
8.38605
8.38329
8.38086
8.35367
8.36471
8.36551
8.36543
8.3655
8.36576
8.36584
8.36957
4.19131
4.18737
4.18688
4.18914
4.18679
4.18637
4.18557
4.18535
4.18503
4.18511
4.20282
4.28944
4.19629
4.18484
4.18249
4.1816
4.18021
4.19445
8.40741
8.40835
8.38975
8.37475
8.37967
8.38167
8.38109
8.37852
8.37422
8.31786
8.25693
8.37799
8.38295
8.38557
8.38668
8.38647
8.3846
8.38091
8.3811
8.38054
8.34846
8.36355
8.3655
8.36556
8.36544
8.36517
8.36541
8.366
4.19204
4.18739
4.18672
4.18956
4.1864
4.18622
4.18559
4.18535
4.18512
4.18505
4.2028
4.2894
4.19637
4.1848
4.1825
4.1816
4.18021
4.19445
8.40753
8.40869
8.38999
8.37517
8.37928
8.3814
8.3807
8.37843
8.3737
8.30538
8.25968
8.37728
8.38321
8.3856
8.38662
8.38618
8.38481
8.38047
8.38022
8.38038
8.34814
8.36406
8.36563
8.36553
8.36558
8.36582
8.36519
8.36561
4.19204
4.1874
4.18671
4.18954
4.18642
4.18623
4.1856
4.18538
4.18517
4.18513
4.2029
4.28888
4.19646
4.18249
4.18242
4.18133
4.18043
4.19427
8.40713
8.4062
8.38996
8.37458
8.38009
8.38164
8.38074
8.37835
8.37667
8.33008
8.2705
8.38412
8.38282
8.3852
8.38648
8.38617
8.38517
8.38187
8.38285
8.38159
8.34967
8.36148
8.36536
8.3654
8.36545
8.36518
8.36575
8.36704
4.1913
4.18738
4.18686
4.18914
4.18681
4.18638
4.18558
4.18534
4.18502
4.18509
4.20278
4.28802
4.19569
4.18226
4.18219
4.18102
4.18298
4.1938
8.40765
8.41548
8.4028
8.38048
8.38478
8.38882
8.38143
8.38715
8.37646
8.33414
8.36411
8.39282
8.39745
8.38559
8.38516
8.38775
8.39077
8.39006
8.3825
8.38605
8.35976
8.37254
8.36609
8.36542
8.36554
8.36607
8.36609
8.37093
4.19113
4.18857
4.18683
4.18802
4.18847
4.18731
4.18596
4.18535
4.1851
4.18505
4.20286
4.29191
4.19462
4.18124
4.18184
4.18132
4.18934
4.19184
4.19116
8.42233
8.4325
8.3798
8.38325
8.40846
8.38419
8.37846
8.34878
8.3579
8.3598
8.37748
8.38923
8.40405
8.38055
8.39363
8.39373
8.38753
8.38445
8.37704
8.36946
8.36831
8.36926
8.36674
8.36878
8.37037
8.37093
4.19512
4.18829
4.18948
4.18781
4.18719
4.1888
4.18983
4.1871
4.18563
4.18512
4.18496
4.20274
4.30117
4.19505
4.18117
4.18206
4.18404
4.19526
4.19617
4.19464
4.19914
8.40353
8.37965
8.37926
8.38999
8.38145
8.34023
8.36817
8.35526
8.36144
8.37671
8.37985
8.38391
8.37769
8.38934
8.38568
8.38272
8.38396
8.36753
8.37231
4.1937
4.19671
4.19387
4.19332
4.19275
4.2052
4.2028
4.18865
4.19576
4.18852
4.18796
4.18817
4.19104
4.18834
4.18629
4.18535
4.1852
4.20292
4.31096
4.19375
4.18436
4.18263
4.18605
4.19933
4.19565
4.19304
4.18575
4.18859
4.18843
4.18781
4.18974
4.1871
4.18465
4.18045
4.20689
4.20027
4.19378
4.19429
4.19316
4.18654
4.18747
4.18611
4.18527
4.19028
4.18475
4.18522
4.19713
4.20011
4.19391
4.19485
4.194
4.2153
4.20063
4.19618
4.20264
4.19216
4.18786
4.18842
4.19036
4.18906
4.18651
4.18585
4.18519
4.20412
4.32824
4.18417
4.19379
4.18328
4.18744
4.1966
4.19038
4.19096
4.19324
4.19957
4.18941
4.18475
4.19052
4.18218
4.17835
4.17973
4.20452
4.19143
4.18761
4.18877
4.18891
4.18586
4.17432
4.17299
4.182
4.18661
4.18309
4.18585
4.21096
4.20083
4.19204
4.19183
4.19651
4.21658
4.20078
4.20235
4.20343
4.19227
4.19137
4.18746
4.18905
4.18771
4.18565
4.18538
4.1848
4.20188
4.32672
4.17515
4.18802
4.18082
4.18486
4.1915
4.18726
4.1885
4.19003
4.19607
4.18681
4.18448
4.19726
4.18637
4.17791
4.18236
4.1849
4.18504
4.18561
4.18633
4.1866
4.18526
4.1749
4.16816
4.17922
4.18642
4.18411
4.18441
4.21647
4.20016
4.19014
4.1898
4.19459
4.21517
4.20088
4.20154
4.20797
4.18595
4.19004
4.18575
4.18695
4.18501
4.1844
4.18432
4.18424
4.19507
4.30073
4.17831
4.17565
4.17919
4.1827
4.19413
4.19302
4.18982
4.18133
4.19017
4.19288
4.18532
4.18488
4.18256
4.18275
4.1851
4.18531
4.18636
4.18701
4.18751
4.18739
4.18547
4.18623
4.17802
4.17419
4.18217
4.18195
4.18126
4.18801
4.18361
4.1986
4.18982
4.19412
4.21323
4.19999
4.20055
4.20715
4.19819
4.18504
4.18647
4.18451
4.1844
4.18417
4.18413
4.18401
4.19175
4.31105
4.19392
4.18487
4.18267
4.18564
4.19938
4.19768
4.19407
4.17928
4.18905
4.19426
4.18653
4.18913
4.18907
4.18874
4.18555
4.17865
4.18516
4.19042
4.19134
4.19811
4.18428
4.18294
4.19298
4.18578
4.19185
4.18976
4.19471
4.20047
4.18685
4.20022
4.19176
4.19655
4.21586
4.20039
4.20129
4.20256
4.19492
4.18704
4.18837
4.18727
4.18814
4.18714
4.18705
4.18519
4.20757
4.29944
4.21027
4.19758
4.18701
4.18649
4.19984
4.19982
4.19928
4.18652
8.3521
8.37168
8.3762
8.3879
8.40007
8.38855
8.39328
8.36208
8.35273
8.37579
8.37238
8.38745
8.36997
8.32468
8.39712
8.37913
8.36919
8.41678
8.40248
4.20347
4.19218
4.20131
4.19453
4.19829
4.21194
4.19943
4.19646
4.19807
4.19073
4.18873
4.18789
4.18975
4.1917
4.19106
4.18994
4.18731
4.2166
4.28215
4.2148
4.21019
4.19413
4.19336
4.20044
8.39896
8.40408
8.41144
8.38086
8.36032
8.38965
8.39212
8.39737
8.3635
8.37328
8.35235
8.34868
8.37426
8.37829
8.38108
8.35214
8.37483
8.38906
8.39443
8.40894
8.39429
8.37097
8.38125
8.37841
8.38299
8.38336
8.37921
8.40049
8.40837
8.3707
4.19278
4.18958
4.1895
4.1886
4.19166
4.19385
4.1912
4.18804
4.18793
4.21623
4.27173
4.21408
4.20894
4.1945
4.18685
4.19248
8.39898
8.40131
8.40817
8.44587
8.41163
8.38906
8.39044
8.42949
8.34109
8.35958
8.34641
8.3577
8.38431
8.39034
8.39262
8.36043
8.39878
8.40261
8.41889
8.40783
8.38142
8.37681
8.37522
8.37384
8.37405
8.37327
8.37508
8.37423
8.38901
8.37856
4.19158
4.19044
4.18854
4.19001
4.1949
4.1932
4.18827
4.18658
4.18647
4.21525
4.26897
4.21388
4.20692
4.18695
4.18548
4.18939
8.39869
8.40188
8.40459
8.41457
8.44775
8.42166
8.4138
8.44657
8.38466
8.33589
8.34239
8.35494
8.38746
8.41751
8.40859
8.41545
8.41142
8.40735
8.41452
8.40447
8.39685
8.37494
8.37476
8.37327
8.37201
8.37123
8.37059
8.37003
8.36986
8.37122
4.19113
4.18963
4.18927
4.19098
4.19367
4.18987
4.18713
4.18628
4.18618
4.21521
4.26939
4.21458
4.2062
4.18662
4.18097
4.18429
8.39981
8.40258
8.40591
8.40159
8.40985
8.40728
8.41535
8.40825
8.3977
8.39514
8.26689
8.3583
8.4198
8.41732
8.39755
8.41027
8.40848
8.41543
8.40726
8.39899
8.39344
8.37641
8.37473
8.37388
8.37242
8.37112
8.37046
8.37002
8.36939
8.36861
4.19033
4.18898
4.19068
4.18914
4.19264
4.18818
4.18704
4.18633
4.18614
4.21512
4.26969
4.21479
4.20862
4.1898
4.17716
4.18427
8.40054
8.40361
8.40662
8.4009
8.39159
8.36848
8.38675
8.39397
8.38953
8.37974
8.21526
8.21695
8.39193
8.39641
8.40071
8.40168
8.39589
8.38871
8.39152
8.39552
8.39236
8.37679
8.37539
8.37395
8.3725
8.37156
8.37044
8.36949
8.36934
8.3689
4.19024
4.18866
4.19124
4.18856
4.1923
4.18765
4.18722
4.18644
4.18615
4.21504
4.26966
4.21488
4.20862
4.18975
4.17716
4.18427
8.40049
8.40353
8.40669
8.40126
8.39172
8.36717
8.386
8.39386
8.38975
8.3788
8.21804
8.19145
8.38606
8.39688
8.4011
8.40129
8.39442
8.38376
8.38849
8.39534
8.39285
8.37693
8.37536
8.37376
8.37249
8.37171
8.37042
8.36946
8.36964
8.36868
4.19024
4.18866
4.19121
4.18854
4.19227
4.18772
4.1873
4.18655
4.18627
4.21517
4.26966
4.21476
4.20614
4.18616
4.18093
4.18429
8.40027
8.40319
8.40623
8.40022
8.39318
8.37895
8.39249
8.39624
8.38966
8.38948
8.22089
8.28928
8.41217
8.39947
8.40025
8.40488
8.40135
8.40358
8.4012
8.39565
8.39269
8.37658
8.37515
8.37406
8.3726
8.3713
8.37062
8.36982
8.36919
8.36909
4.19032
4.18899
4.19072
4.18908
4.19268
4.18834
4.187
4.18628
4.18608
4.21505
4.27157
4.2142
4.20555
4.18186
4.18581
4.18945
8.39958
8.40215
8.40528
8.40812
8.43359
8.42919
8.43479
8.4317
8.40718
8.35937
8.32284
8.3663
8.40084
8.43418
8.39731
8.41642
8.41326
8.4124
8.40973
8.40283
8.39543
8.3758
8.3749
8.37365
8.37253
8.37106
8.37027
8.37006
8.36937
8.36886
4.19107
4.19
4.18971
4.19088
4.19388
4.19088
4.18744
4.1863
4.18617
4.21522
4.27982
4.21403
4.20188
4.18141
4.18489
4.19287
8.39818
8.40241
8.4053
8.43129
8.44656
8.40252
8.38901
8.44837
8.35319
8.34405
8.34531
8.35587
8.3856
8.39438
8.40776
8.38859
8.40326
8.40469
8.41885
8.40815
8.3885
8.37607
8.37425
8.37279
8.37185
8.3711
8.37166
8.37109
8.37075
8.37651
4.18924
4.19099
4.1886
4.19009
4.19676
4.19685
4.18907
4.18659
4.18645
4.2152
4.29107
4.21316
4.19874
4.18571
4.18559
4.20102
8.40008
8.40075
8.41305
8.43131
8.37518
8.38666
8.39871
8.39634
8.34392
8.35056
8.34598
8.3626
8.3829
8.38871
8.38741
8.34611
8.40599
8.39806
8.40954
8.40807
8.38132
8.36801
8.37841
8.38013
8.38299
8.37544
8.37816
8.38112
8.40896
8.37288
4.19257
4.19017
4.18845
4.18881
4.19609
4.19809
4.1921
4.18812
4.18788
4.21617
4.29936
4.21018
4.1975
4.18717
4.18738
4.20175
4.20016
4.19731
4.1898
8.35653
8.36074
8.37733
8.39234
8.40977
8.39076
8.37406
8.39525
8.45492
8.37488
8.37237
8.37546
8.36324
8.37385
8.39246
8.3869
8.39761
8.39602
8.36362
4.22068
4.21043
4.19948
4.21176
4.19735
4.21304
4.20051
4.19329
4.19457
4.18913
4.18795
4.18837
4.19178
4.19319
4.19124
4.18995
4.18725
4.21652
4.30848
4.19511
4.19456
4.1856
4.18721
4.2014
4.19525
4.19279
4.18241
4.18532
4.18414
4.18944
4.19779
4.17482
4.18314
4.18854
4.2172
4.19847
4.19032
4.19135
4.19649
4.17999
4.1795
4.19309
4.1934
4.19565
4.18488
4.18619
4.22514
4.21045
4.19368
4.19723
4.19071
4.20378
4.20396
4.18827
4.19534
4.18904
4.18819
4.1866
4.18761
4.18828
4.18716
4.18705
4.18517
4.20755
4.30345
4.17668
4.18151
4.17946
4.18311
4.19454
4.19208
4.18966
4.1824
4.18891
4.18404
4.18543
4.19243
4.18387
4.18615
4.18458
4.18676
4.18649
4.18704
4.18756
4.18707
4.18415
4.17325
4.17801
4.18651
4.18961
4.18384
4.184
4.2222
4.20475
4.18847
4.18798
4.18783
4.20274
4.20965
4.18696
4.19933
4.18657
4.18617
4.18458
4.18457
4.18439
4.18418
4.18414
4.18399
4.19176
4.29444
4.17589
4.17457
4.1765
4.17971
4.19017
4.19196
4.19122
4.18936
4.18786
4.18327
4.18413
4.18851
4.18376
4.1838
4.18614
4.18284
4.18652
4.18877
4.19045
4.19074
4.18727
4.18842
4.18756
4.17916
4.18641
4.17642
4.18592
4.19075
4.18099
4.20125
4.1883
4.18791
4.20167
4.20766
4.1868
4.19776
4.18562
4.18481
4.18549
4.18448
4.18421
4.18418
4.18415
4.1843
4.19116
4.30129
4.19509
4.18126
4.18201
4.18413
4.19553
4.19879
4.1947
4.19537
8.3714
8.38549
8.37942
8.38534
8.38654
8.36158
8.38755
8.3694
8.3655
8.38045
8.37882
8.39068
8.35302
8.36455
8.37838
8.37131
8.38529
8.36793
8.36608
4.19926
4.18929
4.20553
4.19234
4.19341
4.20349
4.20672
4.1893
4.19634
4.18778
4.18717
4.18731
4.18725
4.18634
4.18671
4.18674
4.18652
4.20953
4.29098
4.21324
4.19874
4.18576
4.1856
4.20114
8.40727
8.40801
8.41044
8.36721
8.35013
8.39002
8.39246
8.39426
8.3662
8.36921
8.34421
8.35071
8.39242
8.38772
8.4807
8.3507
8.37824
8.4282
8.40938
8.44839
8.43661
8.44176
8.46088
8.38278
8.41446
8.3782
8.38687
8.39921
8.40837
8.37434
4.19843
4.19146
4.193
4.18774
4.19423
4.18914
4.19101
4.1916
4.19226
4.2263
4.27243
4.2238
4.2346
4.20552
4.1983
8.40016
8.40746
8.41841
8.41523
8.39773
8.36037
8.39263
8.38988
8.39561
8.38721
8.35477
8.33749
8.35019
8.38522
8.39326
8.40841
8.3374
8.40705
8.42186
8.42927
8.40449
8.48635
8.38017
8.38829
8.38561
8.39028
8.38388
8.3848
8.39303
8.40875
8.38518
8.3897
4.19292
4.19474
4.18966
4.19581
4.19434
4.19317
4.19151
4.19714
4.23373
4.25808
4.22773
4.23894
4.22626
4.19557
8.40206
8.40856
8.4129
8.424
8.42278
8.39864
8.39836
8.3971
8.40936
8.38412
8.37106
8.3359
8.35437
8.39255
8.40176
8.38499
8.36599
8.4226
8.45372
8.42635
8.40151
8.39053
8.38616
8.38557
8.38414
8.38668
8.3799
8.37887
8.37727
8.38958
8.38029
8.37757
4.19077
4.19153
4.19013
4.19374
4.20017
4.19152
4.18838
4.19009
4.23082
4.2528
4.22698
4.23707
4.22032
4.18772
8.40983
8.41048
8.40927
8.41146
8.41191
8.4214
8.44946
8.41885
8.45529
8.33155
8.30929
8.3348
8.35306
8.39765
8.40391
8.37781
8.40398
8.45623
8.4349
8.40888
8.40394
8.39967
8.38872
8.38867
8.38383
8.38217
8.38047
8.37902
8.37734
8.37624
8.3748
8.37459
4.19159
4.19039
4.18995
4.19568
4.19699
4.19051
4.18804
4.18764
4.22769
4.25262
4.22617
4.23459
4.21602
4.18882
8.36992
8.40267
8.40633
8.41065
8.40972
8.4093
8.43628
8.4352
8.44271
8.37735
8.36521
8.32668
8.35207
8.43446
8.42898
8.41456
8.42036
8.46174
8.42538
8.409
8.40571
8.40166
8.38981
8.38696
8.38456
8.38261
8.38049
8.3792
8.37808
8.37627
8.37518
8.37428
4.19081
4.18956
4.18956
4.19522
4.19324
4.19194
4.1887
4.18723
4.22676
4.25285
4.2262
4.23399
4.21888
4.18632
8.36895
8.40371
8.4077
8.41151
8.41061
8.4098
8.40971
8.38637
8.38865
8.40314
8.39838
8.22049
8.18447
8.42881
8.4151
8.41934
8.39693
8.41143
8.41518
8.41089
8.40644
8.40247
8.39053
8.38827
8.38499
8.3832
8.38142
8.37908
8.37761
8.37668
8.37509
8.37386
4.19073
4.18962
4.18941
4.19402
4.19071
4.19387
4.18989
4.1874
4.22683
4.25285
4.2262
4.23403
4.21884
4.18631
8.36909
8.40368
8.4076
8.41189
8.41093
8.41017
8.41058
8.38293
8.38347
8.40352
8.38905
8.21067
8.11209
8.40322
8.41452
8.41608
8.39365
8.40373
8.41407
8.41099
8.40645
8.40292
8.39065
8.38825
8.38514
8.3832
8.3814
8.37922
8.37773
8.37646
8.37522
8.374
4.19074
4.1897
4.18947
4.19386
4.19064
4.19381
4.1898
4.18769
4.22717
4.25291
4.22618
4.23472
4.21576
4.18881
8.369
8.40333
8.40715
8.41132
8.40997
8.40927
8.41333
8.40586
8.40475
8.39075
8.40639
8.27262
8.29309
8.45454
8.4231
8.42243
8.41371
8.43747
8.42064
8.41023
8.40657
8.40211
8.39012
8.38771
8.38497
8.38317
8.38119
8.37919
8.3777
8.37657
8.37513
8.37408
4.19086
4.19083
4.18954
4.19553
4.19415
4.19306
4.1889
4.1872
4.22692
4.25422
4.22696
4.23712
4.21704
4.18822
8.39109
8.40479
8.40672
8.4102
8.40952
8.41227
8.4596
8.44272
8.47148
8.35354
8.31161
8.33517
8.35113
8.40337
8.41522
8.38717
8.41223
8.4618
8.42672
8.40886
8.40432
8.40091
8.38969
8.38716
8.38437
8.38237
8.3804
8.37922
8.37786
8.3762
8.37509
8.37409
4.19279
4.1963
4.19024
4.19799
4.2031
4.19566
4.18864
4.18767
4.2279
4.26142
4.22728
4.23836
4.21247
4.19524
8.40426
8.41375
8.41282
8.41447
8.42233
8.42225
8.42218
8.398
8.43181
8.35793
8.33308
8.32631
8.35466
8.39477
8.40243
8.36139
8.40233
8.44224
8.43765
8.42062
8.40518
8.39685
8.38774
8.38852
8.38415
8.38304
8.38008
8.38796
8.37726
8.37609
8.37668
8.37484
4.19816
4.19589
4.18936
4.20125
4.21747
4.20024
4.18925
4.19021
4.23077
4.27243
4.22376
4.2346
4.20548
4.19824
8.40243
8.41326
8.41449
8.41544
8.41432
8.36954
8.38825
8.40095
8.39358
8.38077
8.31224
8.3315
8.37063
8.39062
8.39361
8.34716
8.39439
8.43161
8.42534
8.43861
8.42224
8.41514
8.40295
8.38784
8.39126
8.39335
8.38132
8.42582
8.37944
8.39643
8.38865
8.39441
4.19708
4.18944
4.18844
4.19709
4.21185
4.199
4.19233
4.19712
4.2338
4.2821
4.21471
4.2102
4.19417
4.19459
4.20091
8.40463
8.41311
8.40863
8.38319
8.34458
8.39317
8.39185
8.39458
8.37066
8.3765
8.37388
8.42135
8.37824
8.38415
8.36937
8.3612
8.44594
8.41366
8.47529
8.43738
8.40578
8.37295
8.40861
8.41368
8.37709
8.39612
8.39765
8.40326
8.41047
8.39004
4.19786
4.19211
4.18861
4.18779
4.18883
4.19338
4.19217
4.19173
4.19222
4.22634
4.29158
4.19588
4.18719
4.18488
4.18661
4.20353
4.19457
4.19543
4.1945
8.36789
8.3491
8.38601
8.45417
8.36996
8.3171
8.37242
8.36558
8.39864
8.37729
8.37515
8.41399
8.33699
8.37065
8.40178
8.39927
8.40804
8.37946
8.37207
4.2119
4.21504
4.19197
4.20241
4.19185
4.19543
4.2016
4.18737
4.19112
4.18765
4.18702
4.18637
4.18598
4.18635
4.18672
4.18675
4.1865
4.2095
4.29137
4.17653
4.17673
4.17654
4.17975
4.19088
4.19116
4.19118
4.18951
4.18757
4.18333
4.18681
4.19226
4.18385
4.18653
4.18706
4.18262
4.18625
4.18877
4.19042
4.18971
4.18612
4.18116
4.18731
4.18788
4.18759
4.18054
4.18732
4.20832
4.21548
4.1871
4.18784
4.18671
4.18812
4.20126
4.18517
4.18514
4.18569
4.18501
4.18448
4.18428
4.18414
4.18421
4.18415
4.18428
4.19117
4.28977
4.17412
4.1732
4.17177
4.17276
4.18531
4.187
4.19068
4.19299
4.18982
4.18194
8.37054
8.37194
8.36721
8.36859
8.36296
8.36697
8.36794
8.37127
8.3724
8.37659
8.37244
8.37236
8.37203
8.37324
8.37181
4.17849
4.19014
4.19139
4.17395
4.20869
4.18894
4.18952
4.18971
4.19876
4.18546
4.18538
4.1856
4.18465
4.1845
4.18435
4.18415
4.18407
4.1841
4.18433
4.19082
4.29182
4.19467
4.18119
4.18185
4.18137
4.18928
4.19209
4.19106
8.4171
8.42269
8.37024
8.3793
8.39521
8.38439
8.35099
8.35895
8.35647
8.35994
8.37731
8.38099
8.39676
8.37962
8.39534
8.39099
8.38388
8.38426
8.36926
8.37505
8.37012
8.36711
8.43116
8.37276
8.37378
8.37132
4.19497
4.19038
4.19019
4.188
4.18683
4.18634
4.1869
4.1857
4.18545
4.1856
4.18652
4.21014
4.27977
4.21411
4.20181
4.18158
4.18493
4.19281
8.39901
8.40189
8.40857
8.44591
8.40882
8.3894
8.39048
8.44331
8.34441
8.35796
8.3428
8.3575
8.38435
8.38935
8.39712
8.36193
8.39879
8.40735
8.41984
8.41002
8.3776
8.37854
8.38091
8.39337
8.43158
8.38648
8.39478
8.3734
8.39979
8.39069
4.19646
4.19107
4.19389
4.18764
4.19481
4.18851
4.1873
4.18875
4.19216
4.23432
4.26142
4.22732
4.23829
4.21257
4.19534
8.40176
8.40944
8.41959
8.4182
8.42519
8.39584
8.39562
8.39763
8.42748
8.39287
8.33823
8.31648
8.35248
8.39285
8.40215
8.37176
8.3924
8.43351
8.50507
8.42241
8.41267
8.40499
8.38657
8.38614
8.39742
8.4382
8.41609
8.3787
8.37784
8.40273
8.38991
8.40919
4.19998
4.20294
4.1887
4.19699
4.19226
4.19037
4.19127
4.20106
4.25605
4.24838
4.2364
4.24335
4.23926
8.43227
8.41488
8.41705
8.41974
8.43376
8.42821
8.41397
8.41846
8.40166
8.41161
8.40524
8.31763
8.25591
8.34886
8.39987
8.4125
8.35482
8.43083
8.43421
8.46471
8.44052
8.41188
8.39982
8.39656
8.39635
8.39655
8.43305
8.3977
8.39098
8.38309
8.38622
8.37955
8.37775
8.38253
4.21039
4.18933
4.19124
4.19922
4.19455
4.19209
4.19474
4.2562
4.24247
4.23648
4.23999
4.2396
8.45127
8.43846
8.41272
8.42565
8.43974
8.44538
8.43614
8.43281
8.43358
8.41076
8.44052
8.30521
8.31204
8.34862
8.4318
8.36841
8.39319
8.45736
8.48053
8.45195
8.42043
8.41489
8.40852
8.39942
8.42178
8.39354
8.40009
8.42737
8.38632
8.38796
8.38124
8.37986
8.37882
8.37791
4.19375
4.19007
4.19197
4.1979
4.19588
4.19515
4.19075
4.24407
4.24103
4.23442
4.23657
4.23901
8.46445
8.39478
8.41103
8.4118
8.42209
8.46195
8.43056
8.45259
8.47771
8.46738
8.39519
8.32585
8.30052
8.34177
8.42679
8.39839
8.41094
8.51674
8.44486
8.44511
8.44784
8.43521
8.43889
8.40356
8.40027
8.39606
8.39865
8.3964
8.38602
8.38364
8.38188
8.38045
8.37925
8.37814
4.19263
4.18987
4.1914
4.19327
4.19651
4.19739
4.1914
4.2393
4.24104
4.23422
4.23537
4.23998
8.47752
8.38349
8.41428
8.41425
8.4193
8.42829
8.42409
8.4296
8.43145
8.40502
8.38171
8.43843
8.16937
8.28397
8.47177
8.44477
8.47965
8.48192
8.46776
8.43439
8.42179
8.41703
8.42338
8.40153
8.40208
8.39323
8.39436
8.3884
8.38535
8.38365
8.38187
8.38011
8.37926
8.37766
4.19125
4.18999
4.19046
4.19097
4.19824
4.19913
4.19161
4.23858
4.24103
4.23422
4.23537
4.23998
8.47821
8.38325
8.41356
8.41476
8.41932
8.42732
8.42407
8.42729
8.43104
8.39299
8.3837
8.40414
8.16876
8.04763
8.4307
8.4379
8.43935
8.4399
8.45199
8.4333
8.42177
8.41651
8.41884
8.40074
8.40049
8.39317
8.39095
8.3879
8.38522
8.38363
8.38201
8.38031
8.37881
8.37797
4.19276
4.19026
4.19052
4.19118
4.1984
4.1989
4.19176
4.24013
4.24103
4.2344
4.23659
4.23903
8.47399
8.38589
8.41373
8.41284
8.41873
8.43712
8.42455
8.44184
8.4492
8.46423
8.41123
8.39926
8.25988
8.31394
8.44241
8.44962
8.43208
8.51241
8.45555
8.4367
8.42792
8.44087
8.41823
8.40285
8.40106
8.39385
8.39519
8.39092
8.38572
8.38346
8.38182
8.38056
8.37943
8.37826
4.20076
4.19057
4.19162
4.19561
4.20223
4.19867
4.192
4.24196
4.24263
4.23636
4.24001
4.24349
8.45222
8.41996
8.40991
8.41501
8.43291
8.46264
8.43998
8.44345
8.46894
8.43814
8.3695
8.30429
8.33198
8.35254
8.4142
8.31977
8.42731
8.48454
8.46719
8.44954
8.42351
8.41049
8.42976
8.39994
8.39923
8.39969
8.4067
8.40581
8.38604
8.38493
8.38196
8.37975
8.37904
8.37821
4.20855
4.19056
4.19409
4.2084
4.21457
4.19957
4.19161
4.24578
4.24838
4.23644
4.24329
4.23977
8.4554
8.42086
8.41719
8.42662
8.43612
8.43309
8.42421
8.42734
8.41185
8.4089
8.42679
8.32651
8.24056
8.35462
8.42633
8.38732
8.35938
8.45376
8.43979
8.4368
8.45054
8.43086
8.40582
8.39891
8.44004
8.39537
8.3961
8.41123
8.40441
8.39346
8.3821
8.38065
8.37916
8.38556
4.20871
4.18928
4.19781
4.21899
4.21515
4.19656
4.19548
4.25605
4.25807
4.22777
4.23882
4.22646
4.19558
8.40658
8.41046
8.41366
8.43385
8.42574
8.40232
8.39539
8.40885
8.4053
8.39282
8.36349
8.33028
8.34725
8.3974
8.37448
8.35311
8.42043
8.42088
8.43154
8.45923
8.42931
8.39986
8.39252
8.39067
8.40066
8.43922
8.3859
8.39675
8.38058
8.37872
8.37782
8.38132
4.1934
4.19114
4.18867
4.1939
4.2073
4.19844
4.19274
4.20121
4.25599
4.27169
4.21399
4.20903
4.19464
4.18729
4.19004
8.40334
8.40942
8.41277
8.43327
8.41114
8.39227
8.47139
8.39306
8.35189
8.35053
8.34092
8.3556
8.38809
8.39465
8.33779
8.38787
8.4062
8.41483
8.47082
8.41703
8.3854
8.38092
8.3806
8.39668
8.37709
8.37573
8.37495
8.37754
8.37438
8.38062
4.20134
4.19033
4.18872
4.18775
4.1875
4.19032
4.18856
4.18893
4.1922
4.23435
4.28541
4.19524
4.18456
4.18454
4.18223
4.19058
4.19052
4.19044
8.41256
8.43886
8.38729
8.38698
8.48414
8.42134
8.34101
8.35761
8.35066
8.35906
8.38032
8.3843
8.37033
8.39474
8.39105
8.39093
8.39626
8.4041
8.38474
8.38833
8.37131
8.3979
8.36832
8.37454
8.3749
8.37857
4.19382
4.1891
4.19247
4.18682
4.18646
4.18608
4.18585
4.18559
4.18538
4.18557
4.18649
4.21013
4.28763
4.17511
4.1749
4.17194
4.17265
4.1856
4.18679
4.19064
4.19299
4.18982
4.18194
8.37652
8.39316
8.38755
8.36959
8.36983
8.35982
8.36513
8.37422
8.37707
8.38531
8.38028
8.38073
8.38667
8.37723
8.37914
4.18075
4.19096
4.19305
4.20556
4.18943
4.19054
4.18764
4.19089
4.18753
4.18509
4.18512
4.18471
4.18446
4.18432
4.18425
4.18412
4.18409
4.18408
4.1843
4.19084
4.28959
4.17414
4.17307
4.17082
4.17086
4.17345
4.18595
4.19155
4.18708
4.18597
8.36867
8.36882
8.3696
8.36941
8.37067
8.36685
8.36379
8.37451
8.37356
8.37676
8.37275
8.3726
8.37231
8.37195
8.37204
8.37177
8.37051
4.18623
4.19131
4.179
4.19989
4.18887
4.18928
4.18818
4.18873
4.18613