/*--------------------------------*- C++ -*----------------------------------*\
  =========                 |
  \\      /  F ield         | OpenFOAM: The Open Source CFD Toolbox
   \\    /   O peration     | Website:  https://openfoam.org
    \\  /    A nd           | Version:  7
     \\/     M anipulation  |
\*---------------------------------------------------------------------------*/
FoamFile
{
    version     2.0;
    format      ascii;
    class       volScalarField;
    location    "500";
    object      epsilon;
}
// * * * * * * * * * * * * * * * * * * * * * * * * * * * * * * * * * * * * * //

dimensions      [0 2 -3 0 0 0 0];

internalField   nonuniform List<scalar> 
158652
(
8.16571e-05
6.39469e-05
5.11812e-05
4.1803e-05
3.47561e-05
2.93111e-05
2.50396e-05
2.16054e-05
1.88295e-05
1.65372e-05
1.46437e-05
1.30465e-05
1.1703e-05
1.05451e-05
9.55886e-06
8.6916e-06
7.9457e-06
7.28079e-06
6.70541e-06
6.18405e-06
5.73132e-06
5.31445e-06
4.95206e-06
4.61178e-06
4.31726e-06
4.03625e-06
3.79607e-06
3.56212e-06
3.36441e-06
3.16613e-06
3.0023e-06
2.8322e-06
2.69561e-06
2.54785e-06
2.43366e-06
2.30345e-06
2.20818e-06
2.09213e-06
2.01266e-06
1.90751e-06
1.84175e-06
1.74519e-06
1.69177e-06
1.60198e-06
1.55964e-06
1.4598e-06
8.16706e-05
6.39565e-05
5.11847e-05
4.18094e-05
3.47605e-05
2.93142e-05
2.50418e-05
2.16128e-05
1.88355e-05
1.65426e-05
1.46494e-05
1.30481e-05
1.1705e-05
1.05467e-05
9.55936e-06
8.69219e-06
7.94611e-06
7.28109e-06
6.70563e-06
6.18428e-06
5.73147e-06
5.31452e-06
4.95174e-06
4.61163e-06
4.31728e-06
4.03679e-06
3.79679e-06
3.5629e-06
3.36505e-06
3.16688e-06
3.00292e-06
2.83282e-06
2.69607e-06
2.54833e-06
2.43403e-06
2.30385e-06
2.20843e-06
2.09232e-06
2.01278e-06
1.90754e-06
1.84178e-06
1.74521e-06
1.69179e-06
1.602e-06
1.55965e-06
1.45981e-06
8.16461e-05
6.39244e-05
5.11632e-05
4.17935e-05
3.47479e-05
2.93064e-05
2.50378e-05
2.16121e-05
1.88394e-05
1.65477e-05
1.46526e-05
1.30538e-05
1.17052e-05
1.05464e-05
9.55908e-06
8.69252e-06
7.94671e-06
7.28186e-06
6.70634e-06
6.18522e-06
5.73226e-06
5.31527e-06
4.9527e-06
4.61337e-06
4.31923e-06
4.03891e-06
3.79885e-06
3.56458e-06
3.36654e-06
3.16838e-06
3.00425e-06
2.83405e-06
2.69711e-06
2.54925e-06
2.43491e-06
2.30465e-06
2.20904e-06
2.09285e-06
2.01316e-06
1.90781e-06
1.84204e-06
1.74545e-06
1.69201e-06
1.6022e-06
1.55985e-06
1.45999e-06
8.16255e-05
6.38949e-05
5.11341e-05
4.17608e-05
3.47178e-05
2.92832e-05
2.50221e-05
2.16013e-05
1.88346e-05
1.65477e-05
1.46529e-05
1.30529e-05
1.17085e-05
1.05472e-05
9.55897e-06
8.69216e-06
7.94626e-06
7.28111e-06
6.7055e-06
6.18417e-06
5.73103e-06
5.31385e-06
4.95157e-06
4.61279e-06
4.31941e-06
4.03964e-06
3.79951e-06
3.56503e-06
3.36712e-06
3.169e-06
3.00473e-06
2.83453e-06
2.69744e-06
2.54949e-06
2.43508e-06
2.30481e-06
2.20905e-06
2.09268e-06
2.01293e-06
1.90759e-06
1.84183e-06
1.74525e-06
1.69182e-06
1.60203e-06
1.55969e-06
1.45983e-06
8.16099e-05
6.38849e-05
5.11061e-05
4.17407e-05
3.46813e-05
2.92601e-05
2.49954e-05
2.15882e-05
1.88197e-05
1.65432e-05
1.46497e-05
1.34575e-05
1.20431e-05
1.08373e-05
9.80125e-06
8.90479e-06
8.12492e-06
7.44194e-06
6.841e-06
6.30924e-06
5.83619e-06
5.41411e-06
5.03598e-06
4.69575e-06
4.38849e-06
4.1101e-06
3.79398e-06
3.56056e-06
3.36332e-06
3.1656e-06
3.00168e-06
2.8318e-06
2.69496e-06
2.54715e-06
2.43285e-06
2.30271e-06
2.20707e-06
2.09082e-06
2.01124e-06
1.90608e-06
1.84045e-06
1.74402e-06
1.69069e-06
1.60103e-06
1.55875e-06
1.45905e-06
8.16123e-05
6.38903e-05
5.11074e-05
4.17454e-05
3.46787e-05
2.92562e-05
2.49802e-05
2.15862e-05
1.88047e-05
1.65446e-05
1.51141e-05
1.34431e-05
1.20315e-05
1.08282e-05
9.79428e-06
8.89918e-06
8.11934e-06
7.43652e-06
6.8355e-06
6.3039e-06
5.83151e-06
5.40982e-06
5.03162e-06
4.69101e-06
4.38307e-06
4.10372e-06
3.84962e-06
3.56029e-06
3.36303e-06
3.16533e-06
3.00146e-06
2.83158e-06
2.6948e-06
2.54698e-06
2.43261e-06
2.30239e-06
2.2068e-06
2.09056e-06
2.01101e-06
1.90588e-06
1.84027e-06
1.74387e-06
1.69056e-06
1.60094e-06
1.55867e-06
1.45899e-06
8.16242e-05
6.39143e-05
5.11342e-05
4.17708e-05
3.46964e-05
2.92619e-05
2.49804e-05
2.15866e-05
1.88042e-05
1.65443e-05
1.51141e-05
1.34429e-05
1.20309e-05
1.08275e-05
9.79373e-06
8.89933e-06
8.11972e-06
7.43548e-06
6.8338e-06
6.30192e-06
5.82905e-06
5.40684e-06
5.02844e-06
4.68818e-06
4.38116e-06
4.10315e-06
3.85047e-06
3.56043e-06
3.36311e-06
3.1654e-06
3.0015e-06
2.83162e-06
2.69482e-06
2.547e-06
2.43261e-06
2.3024e-06
2.20681e-06
2.09056e-06
2.01101e-06
1.90588e-06
1.84026e-06
1.74387e-06
1.69056e-06
1.60094e-06
1.55868e-06
1.459e-06
8.16374e-05
6.39428e-05
5.11581e-05
4.17866e-05
3.47007e-05
2.92624e-05
2.49803e-05
2.15872e-05
1.88045e-05
1.65448e-05
1.51058e-05
1.34349e-05
1.20236e-05
1.08212e-05
9.78853e-06
8.89542e-06
8.11776e-06
7.43472e-06
6.83458e-06
6.30404e-06
5.83194e-06
5.41006e-06
5.03149e-06
4.69056e-06
4.38257e-06
4.10354e-06
3.85003e-06
3.56036e-06
3.36304e-06
3.16534e-06
3.00145e-06
2.83158e-06
2.69478e-06
2.54698e-06
2.43259e-06
2.3024e-06
2.20682e-06
2.09058e-06
2.01103e-06
1.9059e-06
1.84029e-06
1.7439e-06
1.69058e-06
1.60096e-06
1.55869e-06
1.45902e-06
8.16375e-05
6.39427e-05
5.11581e-05
4.17866e-05
3.47008e-05
2.92624e-05
2.49803e-05
2.15871e-05
1.88046e-05
1.65448e-05
1.51096e-05
1.34387e-05
1.20272e-05
1.08243e-05
9.79098e-06
8.89703e-06
8.1184e-06
7.43441e-06
6.83351e-06
6.30239e-06
5.83001e-06
5.40792e-06
5.0293e-06
4.68849e-06
4.38077e-06
4.10211e-06
3.84907e-06
3.56049e-06
3.36319e-06
3.16551e-06
3.00162e-06
2.83174e-06
2.69494e-06
2.5471e-06
2.4327e-06
2.30248e-06
2.20688e-06
2.09061e-06
2.01105e-06
1.90591e-06
1.84029e-06
1.74389e-06
1.69057e-06
1.60095e-06
1.55869e-06
1.45901e-06
8.16244e-05
6.39145e-05
5.11341e-05
4.17709e-05
3.46962e-05
2.9262e-05
2.49803e-05
2.15867e-05
1.88041e-05
1.65444e-05
1.51135e-05
1.34417e-05
1.20291e-05
1.08252e-05
9.79144e-06
8.8976e-06
8.11974e-06
7.43705e-06
6.83732e-06
6.30716e-06
5.83533e-06
5.41344e-06
5.0346e-06
4.69318e-06
4.38446e-06
4.10459e-06
3.85016e-06
3.5603e-06
3.363e-06
3.1653e-06
3.00142e-06
2.83155e-06
2.69476e-06
2.54695e-06
2.43258e-06
2.30238e-06
2.20681e-06
2.09057e-06
2.01103e-06
1.9059e-06
1.84029e-06
1.7439e-06
1.69059e-06
1.60096e-06
1.55869e-06
1.45901e-06
8.16133e-05
6.38914e-05
5.1108e-05
4.1746e-05
3.46788e-05
2.92564e-05
2.49802e-05
2.15864e-05
1.88047e-05
1.65448e-05
1.51057e-05
1.34349e-05
1.20237e-05
1.08211e-05
9.78823e-06
8.89437e-06
8.11518e-06
7.43204e-06
6.83066e-06
6.29872e-06
5.82597e-06
5.40403e-06
5.02601e-06
4.68609e-06
4.37937e-06
4.10154e-06
3.84912e-06
3.56034e-06
3.3631e-06
3.16539e-06
3.00152e-06
2.83164e-06
2.69485e-06
2.54703e-06
2.43264e-06
2.30242e-06
2.20682e-06
2.09058e-06
2.01102e-06
1.90589e-06
1.84027e-06
1.74387e-06
1.69055e-06
1.60092e-06
1.55866e-06
1.45898e-06
8.16147e-05
6.38903e-05
5.11095e-05
4.17426e-05
3.46821e-05
2.92605e-05
2.49958e-05
2.15884e-05
1.882e-05
1.65434e-05
1.46498e-05
1.34547e-05
1.20401e-05
1.08337e-05
9.79672e-06
8.89955e-06
8.11922e-06
7.43678e-06
6.83697e-06
6.3068e-06
5.83552e-06
5.41484e-06
5.03723e-06
4.6967e-06
4.38853e-06
4.10875e-06
3.79392e-06
3.56051e-06
3.36329e-06
3.16559e-06
3.00169e-06
2.83183e-06
2.695e-06
2.54721e-06
2.43291e-06
2.30277e-06
2.20712e-06
2.09086e-06
2.01128e-06
1.90612e-06
1.84048e-06
1.74405e-06
1.69072e-06
1.60105e-06
1.55877e-06
1.45906e-06
8.16324e-05
6.39031e-05
5.11386e-05
4.17623e-05
3.47183e-05
2.92835e-05
2.50223e-05
2.16013e-05
1.88347e-05
1.65478e-05
1.4653e-05
1.3053e-05
1.17086e-05
1.05473e-05
9.55898e-06
8.6922e-06
7.9463e-06
7.28111e-06
6.7055e-06
6.18417e-06
5.73103e-06
5.31386e-06
4.95157e-06
4.6128e-06
4.31942e-06
4.03966e-06
3.79951e-06
3.56504e-06
3.36712e-06
3.16899e-06
3.00473e-06
2.83453e-06
2.69744e-06
2.54949e-06
2.43507e-06
2.3048e-06
2.20904e-06
2.09267e-06
2.01293e-06
1.90759e-06
1.84182e-06
1.74524e-06
1.69182e-06
1.60202e-06
1.55968e-06
1.45983e-06
8.16521e-05
6.39366e-05
5.11727e-05
4.17964e-05
3.47492e-05
2.93071e-05
2.50377e-05
2.16118e-05
1.88395e-05
1.65481e-05
1.46529e-05
1.30541e-05
1.17054e-05
1.05465e-05
9.55899e-06
8.69253e-06
7.94695e-06
7.28198e-06
6.70642e-06
6.18528e-06
5.73231e-06
5.3153e-06
4.95272e-06
4.61339e-06
4.31925e-06
4.03893e-06
3.79886e-06
3.56459e-06
3.36655e-06
3.16839e-06
3.00426e-06
2.83406e-06
2.69712e-06
2.54926e-06
2.43492e-06
2.30465e-06
2.20904e-06
2.09285e-06
2.01316e-06
1.90781e-06
1.84203e-06
1.74544e-06
1.69201e-06
1.6022e-06
1.55985e-06
1.45998e-06
8.16714e-05
6.39715e-05
5.11999e-05
4.18144e-05
3.47624e-05
2.93153e-05
2.50421e-05
2.16127e-05
1.88357e-05
1.65431e-05
1.46499e-05
1.30487e-05
1.17056e-05
1.05471e-05
9.55926e-06
8.69222e-06
7.94642e-06
7.28128e-06
6.70575e-06
6.18438e-06
5.73155e-06
5.31458e-06
4.95179e-06
4.61163e-06
4.31732e-06
4.03686e-06
3.79686e-06
3.56297e-06
3.3652e-06
3.16716e-06
3.00318e-06
2.83306e-06
2.69627e-06
2.54851e-06
2.4342e-06
2.304e-06
2.20852e-06
2.09235e-06
2.01279e-06
1.90755e-06
1.84179e-06
1.74522e-06
1.6918e-06
1.602e-06
1.55966e-06
1.45981e-06
8.16863e-05
6.39856e-05
5.12021e-05
4.18086e-05
3.47577e-05
2.93121e-05
2.50402e-05
2.16058e-05
1.88299e-05
1.65376e-05
1.46441e-05
1.30472e-05
1.1706e-05
1.05471e-05
9.55885e-06
8.69176e-06
7.94603e-06
7.28095e-06
6.70549e-06
6.18411e-06
5.73137e-06
5.31449e-06
4.95205e-06
4.61165e-06
4.31717e-06
4.0363e-06
3.79616e-06
3.56221e-06
3.36474e-06
3.16689e-06
3.00301e-06
2.83285e-06
2.69613e-06
2.54832e-06
2.43408e-06
2.30384e-06
2.20839e-06
2.09219e-06
2.01268e-06
1.90751e-06
1.84176e-06
1.74519e-06
1.69177e-06
1.60198e-06
1.55964e-06
1.4598e-06
8.16541e-05
6.39475e-05
5.11841e-05
4.18067e-05
3.47601e-05
2.93154e-05
2.50432e-05
2.16141e-05
1.88394e-05
1.65467e-05
1.46511e-05
1.30497e-05
1.17064e-05
1.0547e-05
9.55889e-06
8.69169e-06
7.94545e-06
7.2805e-06
6.70508e-06
6.18384e-06
5.73106e-06
5.3142e-06
4.95164e-06
4.61173e-06
4.31724e-06
4.03666e-06
3.79663e-06
3.56277e-06
3.36486e-06
3.16674e-06
3.00273e-06
2.83276e-06
2.69598e-06
2.5483e-06
2.43396e-06
2.30386e-06
2.20842e-06
2.09229e-06
2.01271e-06
1.90741e-06
1.84167e-06
1.74513e-06
1.69171e-06
1.60193e-06
1.55959e-06
1.45982e-06
8.16789e-05
6.39957e-05
5.12213e-05
4.18388e-05
3.47848e-05
2.93337e-05
2.50559e-05
2.16241e-05
1.88457e-05
1.65511e-05
1.46572e-05
1.30555e-05
1.17111e-05
1.05514e-05
9.56236e-06
8.69284e-06
7.94574e-06
7.28004e-06
6.70485e-06
6.18345e-06
5.73101e-06
5.31373e-06
4.95079e-06
4.61054e-06
4.31667e-06
4.03657e-06
3.7967e-06
3.56282e-06
3.36491e-06
3.16695e-06
3.00286e-06
2.83293e-06
2.69605e-06
2.54844e-06
2.43401e-06
2.30394e-06
2.20837e-06
2.09218e-06
2.01256e-06
1.90728e-06
1.84156e-06
1.74505e-06
1.69164e-06
1.60187e-06
1.55954e-06
1.45986e-06
8.16523e-05
6.39704e-05
5.121e-05
4.18345e-05
3.47815e-05
2.93353e-05
2.50602e-05
2.16301e-05
1.88495e-05
1.65535e-05
1.46583e-05
1.306e-05
1.17125e-05
1.0552e-05
9.56145e-06
8.69225e-06
7.94449e-06
7.27876e-06
6.70323e-06
6.18236e-06
5.72956e-06
5.31232e-06
4.94877e-06
4.60939e-06
4.31615e-06
4.0368e-06
3.79698e-06
3.56326e-06
3.36527e-06
3.16739e-06
3.00325e-06
2.83326e-06
2.69629e-06
2.54861e-06
2.43417e-06
2.30397e-06
2.2083e-06
2.09205e-06
2.01238e-06
1.90714e-06
1.84142e-06
1.74494e-06
1.69154e-06
1.6018e-06
1.55947e-06
1.45981e-06
8.1612e-05
6.39338e-05
5.1171e-05
4.1806e-05
3.4751e-05
2.93147e-05
2.50473e-05
2.16216e-05
1.88538e-05
1.71349e-05
1.51258e-05
1.34512e-05
1.20369e-05
1.08275e-05
9.79059e-06
8.89523e-06
8.11667e-06
7.4331e-06
6.83325e-06
6.30257e-06
5.83052e-06
5.40748e-06
5.02697e-06
4.68648e-06
4.37964e-06
4.10173e-06
3.84939e-06
3.61915e-06
3.35925e-06
3.16211e-06
2.9985e-06
2.8291e-06
2.69244e-06
2.54513e-06
2.43098e-06
2.30105e-06
2.2056e-06
2.08955e-06
2.01009e-06
1.90512e-06
1.83959e-06
1.74333e-06
1.69006e-06
1.6005e-06
1.55826e-06
1.45879e-06
8.16004e-05
6.39124e-05
5.11509e-05
4.17851e-05
3.47259e-05
2.93034e-05
2.50228e-05
2.16263e-05
1.95228e-05
1.711e-05
1.51094e-05
1.34347e-05
1.20222e-05
1.08162e-05
9.77923e-06
8.88402e-06
8.10694e-06
7.42481e-06
6.82602e-06
6.29617e-06
5.82435e-06
5.40312e-06
5.02581e-06
4.68673e-06
4.38078e-06
4.10346e-06
3.8511e-06
3.62065e-06
3.41013e-06
3.21715e-06
3.0399e-06
2.87682e-06
2.72634e-06
2.58724e-06
2.43024e-06
2.30032e-06
2.20488e-06
2.08889e-06
2.00947e-06
1.90455e-06
1.83904e-06
1.74282e-06
1.68957e-06
1.60005e-06
1.55783e-06
1.45842e-06
8.16021e-05
6.39077e-05
5.116e-05
4.17751e-05
3.47406e-05
2.92809e-05
2.50452e-05
2.24599e-05
1.95144e-05
1.71026e-05
1.5106e-05
1.34356e-05
1.2025e-05
1.08223e-05
9.78839e-06
8.89162e-06
8.11141e-06
7.42877e-06
6.82823e-06
6.29674e-06
5.82456e-06
5.40361e-06
5.02603e-06
4.68588e-06
4.3788e-06
4.10051e-06
3.84759e-06
3.61684e-06
3.40578e-06
3.21237e-06
3.03468e-06
2.87111e-06
2.72031e-06
2.58099e-06
2.45203e-06
2.30037e-06
2.205e-06
2.08902e-06
2.00963e-06
1.90472e-06
1.83923e-06
1.74299e-06
1.68976e-06
1.60025e-06
1.55803e-06
1.45863e-06
8.16072e-05
6.39148e-05
5.11805e-05
4.17927e-05
3.47518e-05
2.92839e-05
2.50459e-05
2.24572e-05
1.95082e-05
1.70948e-05
1.50963e-05
1.34276e-05
1.20188e-05
1.08184e-05
9.78735e-06
8.89417e-06
8.11293e-06
7.4255e-06
6.82307e-06
6.2924e-06
5.82103e-06
5.39984e-06
5.022e-06
4.68185e-06
4.37467e-06
4.09653e-06
3.84393e-06
3.61376e-06
3.40333e-06
3.21065e-06
3.03363e-06
2.87058e-06
2.72012e-06
2.581e-06
2.45216e-06
2.30043e-06
2.20507e-06
2.0891e-06
2.00971e-06
1.90479e-06
1.83928e-06
1.74301e-06
1.68975e-06
1.60021e-06
1.55799e-06
1.45857e-06
8.16076e-05
6.39214e-05
5.11977e-05
4.18053e-05
3.47568e-05
2.92838e-05
2.5047e-05
2.24513e-05
1.95035e-05
1.70896e-05
1.50897e-05
1.34206e-05
1.20118e-05
1.08113e-05
9.78e-06
8.88775e-06
8.10819e-06
7.41797e-06
6.81607e-06
6.28706e-06
5.81669e-06
5.3967e-06
5.02019e-06
4.68131e-06
4.37513e-06
4.09752e-06
3.84488e-06
3.61453e-06
3.40381e-06
3.21086e-06
3.03358e-06
2.87037e-06
2.71987e-06
2.58083e-06
2.45215e-06
2.30043e-06
2.20507e-06
2.08909e-06
2.0097e-06
1.90478e-06
1.83926e-06
1.743e-06
1.68975e-06
1.60023e-06
1.55801e-06
1.4586e-06
8.16088e-05
6.39207e-05
5.11981e-05
4.18051e-05
3.47566e-05
2.9284e-05
2.50465e-05
2.2461e-05
1.95142e-05
1.71005e-05
1.51001e-05
1.343e-05
1.20201e-05
1.08187e-05
9.78712e-06
8.89477e-06
8.11489e-06
7.4248e-06
6.82283e-06
6.29354e-06
5.82269e-06
5.40199e-06
5.02474e-06
4.68526e-06
4.37865e-06
4.10083e-06
3.848e-06
3.61748e-06
3.40656e-06
3.21332e-06
3.03566e-06
2.872e-06
2.72101e-06
2.58148e-06
2.45233e-06
2.30039e-06
2.20505e-06
2.08908e-06
2.0097e-06
1.90478e-06
1.83927e-06
1.743e-06
1.68975e-06
1.60022e-06
1.558e-06
1.45859e-06
8.16066e-05
6.3916e-05
5.11805e-05
4.17932e-05
3.4752e-05
2.92838e-05
2.50463e-05
2.24588e-05
1.95109e-05
1.70978e-05
1.50983e-05
1.34292e-05
1.20201e-05
1.08192e-05
9.78747e-06
8.89461e-06
8.1141e-06
7.42381e-06
6.82103e-06
6.29084e-06
5.81937e-06
5.39798e-06
5.02012e-06
4.68022e-06
4.37329e-06
4.09539e-06
3.84287e-06
3.61272e-06
3.40217e-06
3.20938e-06
3.03222e-06
2.86911e-06
2.71874e-06
2.57992e-06
2.45158e-06
2.30043e-06
2.20507e-06
2.08908e-06
2.00969e-06
1.90477e-06
1.83926e-06
1.743e-06
1.68975e-06
1.60023e-06
1.55801e-06
1.4586e-06
8.16083e-05
6.39108e-05
5.11653e-05
4.17757e-05
3.47424e-05
2.92801e-05
2.50462e-05
2.24565e-05
1.95081e-05
1.70953e-05
1.5099e-05
1.34306e-05
1.20221e-05
1.08216e-05
9.78993e-06
8.89484e-06
8.11327e-06
7.42895e-06
6.82706e-06
6.29554e-06
5.82368e-06
5.40229e-06
5.02427e-06
4.68394e-06
4.37672e-06
4.09855e-06
3.84596e-06
3.61557e-06
3.40494e-06
3.21191e-06
3.03449e-06
2.87107e-06
2.72026e-06
2.58087e-06
2.45183e-06
2.30036e-06
2.20496e-06
2.08897e-06
2.00956e-06
1.90464e-06
1.83913e-06
1.74288e-06
1.68963e-06
1.60011e-06
1.55789e-06
1.45849e-06
8.16164e-05
6.39308e-05
5.11658e-05
4.17916e-05
3.4729e-05
2.9304e-05
2.5024e-05
2.16266e-05
1.9528e-05
1.71134e-05
1.51142e-05
1.34419e-05
1.20295e-05
1.08245e-05
9.78785e-06
8.89066e-06
8.11202e-06
7.42959e-06
6.83007e-06
6.29921e-06
5.82655e-06
5.40516e-06
5.02741e-06
4.68731e-06
4.38049e-06
4.10253e-06
3.85e-06
3.61986e-06
3.40962e-06
3.21697e-06
3.03996e-06
2.87692e-06
2.72649e-06
2.58741e-06
2.43026e-06
2.30034e-06
2.20491e-06
2.08893e-06
2.00952e-06
1.9046e-06
1.83911e-06
1.74289e-06
1.68965e-06
1.60014e-06
1.55792e-06
1.45851e-06
8.16358e-05
6.39635e-05
5.11891e-05
4.18125e-05
3.47531e-05
2.93156e-05
2.50479e-05
2.16218e-05
1.88546e-05
1.71306e-05
1.51237e-05
1.34472e-05
1.20335e-05
1.08252e-05
9.78719e-06
8.89132e-06
8.11267e-06
7.42894e-06
6.82918e-06
6.29889e-06
5.8273e-06
5.40532e-06
5.02696e-06
4.68754e-06
4.38114e-06
4.10311e-06
3.84996e-06
3.61854e-06
3.35921e-06
3.16209e-06
2.99846e-06
2.82907e-06
2.69244e-06
2.54513e-06
2.43098e-06
2.30106e-06
2.20561e-06
2.08956e-06
2.0101e-06
1.90513e-06
1.83959e-06
1.74333e-06
1.69007e-06
1.60051e-06
1.55827e-06
1.45881e-06
8.16646e-05
6.39894e-05
5.12255e-05
4.18405e-05
3.47839e-05
2.93359e-05
2.50583e-05
2.16279e-05
1.88496e-05
1.6554e-05
1.46587e-05
1.30601e-05
1.17127e-05
1.05523e-05
9.5618e-06
8.69289e-06
7.94423e-06
7.27851e-06
6.70261e-06
6.18207e-06
5.72896e-06
5.31172e-06
4.94802e-06
4.60893e-06
4.31581e-06
4.03633e-06
3.79654e-06
3.56265e-06
3.36497e-06
3.16725e-06
3.00311e-06
2.83316e-06
2.69619e-06
2.5485e-06
2.43406e-06
2.30386e-06
2.20816e-06
2.09191e-06
2.01222e-06
1.907e-06
1.84128e-06
1.74481e-06
1.69142e-06
1.60168e-06
1.55935e-06
1.4597e-06
8.16875e-05
6.40043e-05
5.1224e-05
4.18391e-05
3.47846e-05
2.93325e-05
2.50528e-05
2.16208e-05
1.88444e-05
1.65514e-05
1.46583e-05
1.30576e-05
1.17132e-05
1.05519e-05
9.562e-06
8.69268e-06
7.94613e-06
7.28015e-06
6.70479e-06
6.18354e-06
5.73092e-06
5.31361e-06
4.95036e-06
4.61013e-06
4.31632e-06
4.03652e-06
3.79675e-06
3.56287e-06
3.36531e-06
3.16771e-06
3.00361e-06
2.83359e-06
2.69659e-06
2.54889e-06
2.43445e-06
2.30424e-06
2.20856e-06
2.09226e-06
2.01259e-06
1.90731e-06
1.84158e-06
1.74506e-06
1.69165e-06
1.60189e-06
1.55955e-06
1.45987e-06
8.16896e-05
6.39719e-05
5.11843e-05
4.18041e-05
3.47579e-05
2.93136e-05
2.50412e-05
2.16122e-05
1.88381e-05
1.6547e-05
1.46546e-05
1.30562e-05
1.171e-05
1.05484e-05
9.55912e-06
8.69169e-06
7.94563e-06
7.28045e-06
6.70499e-06
6.18373e-06
5.731e-06
5.3141e-06
4.95127e-06
4.61067e-06
4.31633e-06
4.03638e-06
3.79678e-06
3.56293e-06
3.36545e-06
3.16787e-06
3.00382e-06
2.8337e-06
2.69673e-06
2.54895e-06
2.43458e-06
2.30437e-06
2.20875e-06
2.09246e-06
2.01275e-06
1.90745e-06
1.8417e-06
1.74516e-06
1.69173e-06
1.60195e-06
1.55961e-06
1.45984e-06
8.1649e-05
6.39319e-05
5.11695e-05
4.17948e-05
3.47489e-05
2.93074e-05
2.50381e-05
2.16122e-05
1.88407e-05
1.65503e-05
1.46543e-05
1.30542e-05
1.17055e-05
1.05465e-05
9.55899e-06
8.69238e-06
7.94663e-06
7.28181e-06
6.70629e-06
6.18517e-06
5.73221e-06
5.31526e-06
4.95266e-06
4.61325e-06
4.31911e-06
4.03876e-06
3.79869e-06
3.56443e-06
3.36636e-06
3.16814e-06
3.004e-06
2.83395e-06
2.69699e-06
2.54919e-06
2.43484e-06
2.3046e-06
2.20899e-06
2.09282e-06
2.01312e-06
1.90777e-06
1.842e-06
1.74541e-06
1.69198e-06
1.60217e-06
1.55982e-06
1.45997e-06
8.16637e-05
6.3988e-05
5.12253e-05
4.18403e-05
3.47843e-05
2.93367e-05
2.50596e-05
2.16276e-05
1.88495e-05
1.65548e-05
1.46608e-05
1.30607e-05
1.17136e-05
1.05525e-05
9.56291e-06
8.69276e-06
7.94459e-06
7.27843e-06
6.70304e-06
6.18186e-06
5.72931e-06
5.31178e-06
4.9485e-06
4.60852e-06
4.31568e-06
4.03592e-06
3.79643e-06
3.56228e-06
3.36477e-06
3.16683e-06
3.00269e-06
2.83283e-06
2.69588e-06
2.54825e-06
2.43382e-06
2.30366e-06
2.20802e-06
2.09176e-06
2.01212e-06
1.90685e-06
1.84116e-06
1.74466e-06
1.69128e-06
1.60156e-06
1.55924e-06
1.45965e-06
8.16251e-05
6.39709e-05
5.12376e-05
4.18707e-05
3.48035e-05
2.9366e-05
2.50797e-05
2.16494e-05
1.88643e-05
1.71422e-05
1.51332e-05
1.34578e-05
1.20429e-05
1.08379e-05
9.80217e-06
8.90112e-06
8.11825e-06
7.43398e-06
6.83499e-06
6.30539e-06
5.83429e-06
5.41353e-06
5.03433e-06
4.69021e-06
4.38288e-06
4.10398e-06
3.85034e-06
3.61881e-06
3.3575e-06
3.16061e-06
2.99715e-06
2.82794e-06
2.69146e-06
2.54429e-06
2.43025e-06
2.30042e-06
2.20504e-06
2.08905e-06
2.00966e-06
1.9047e-06
1.83921e-06
1.74301e-06
1.68979e-06
1.60031e-06
1.5581e-06
1.45882e-06
8.1581e-05
6.39149e-05
5.12065e-05
4.18673e-05
3.47806e-05
2.93813e-05
2.61301e-05
2.24759e-05
1.95224e-05
1.71033e-05
1.50972e-05
1.34262e-05
1.20159e-05
1.08122e-05
9.77966e-06
8.88025e-06
8.10223e-06
7.41927e-06
6.82134e-06
6.29257e-06
5.82233e-06
5.40137e-06
5.02118e-06
4.68135e-06
4.37574e-06
4.09853e-06
3.84664e-06
3.61658e-06
3.40641e-06
3.21411e-06
3.03738e-06
2.87475e-06
2.72463e-06
2.58595e-06
2.45757e-06
2.33836e-06
2.20421e-06
2.0883e-06
2.00897e-06
1.90417e-06
1.83874e-06
1.7427e-06
1.68951e-06
1.60013e-06
1.55794e-06
1.45875e-06
8.15533e-05
6.38809e-05
5.11813e-05
4.18438e-05
3.47601e-05
2.936e-05
2.61114e-05
2.24616e-05
1.95171e-05
1.71066e-05
1.51075e-05
1.3432e-05
1.202e-05
1.08133e-05
9.77817e-06
8.87982e-06
8.10283e-06
7.41976e-06
6.82205e-06
6.29338e-06
5.82186e-06
5.39807e-06
5.01962e-06
4.68118e-06
4.37556e-06
4.09859e-06
3.84681e-06
3.61709e-06
3.4073e-06
3.21501e-06
3.03831e-06
2.87558e-06
2.72541e-06
2.58661e-06
2.45816e-06
2.33901e-06
2.20418e-06
2.08832e-06
2.00899e-06
1.90419e-06
1.83878e-06
1.74274e-06
1.68955e-06
1.6001e-06
1.55791e-06
1.45869e-06
8.15479e-05
6.38734e-05
5.11777e-05
4.18387e-05
3.47593e-05
2.93544e-05
2.61069e-05
2.24565e-05
1.95127e-05
1.7105e-05
1.51108e-05
1.34406e-05
1.20288e-05
1.08238e-05
9.78515e-06
8.88536e-06
8.10603e-06
7.42259e-06
6.82344e-06
6.29221e-06
5.81921e-06
5.39659e-06
5.01902e-06
4.68008e-06
4.37459e-06
4.09805e-06
3.84686e-06
3.61783e-06
3.40837e-06
3.21632e-06
3.03975e-06
2.87705e-06
2.72683e-06
2.58791e-06
2.4593e-06
2.34004e-06
2.20413e-06
2.08828e-06
2.00898e-06
1.90423e-06
1.83883e-06
1.74274e-06
1.68955e-06
1.60008e-06
1.55788e-06
1.45865e-06
8.15477e-05
6.38775e-05
5.11828e-05
4.18528e-05
3.4766e-05
2.93572e-05
2.61191e-05
2.24689e-05
1.95245e-05
1.71153e-05
1.51172e-05
1.34422e-05
1.20281e-05
1.08237e-05
9.7897e-06
8.89278e-06
8.10721e-06
7.41925e-06
6.81626e-06
6.28638e-06
5.81667e-06
5.39721e-06
5.02052e-06
4.68163e-06
4.37569e-06
4.09862e-06
3.84667e-06
3.61687e-06
3.40675e-06
3.21424e-06
3.03744e-06
2.87476e-06
2.72477e-06
2.58619e-06
2.45788e-06
2.33882e-06
2.20412e-06
2.08825e-06
2.00897e-06
1.90421e-06
1.83881e-06
1.74271e-06
1.68953e-06
1.60008e-06
1.55789e-06
1.45868e-06
8.1547e-05
6.38808e-05
5.11866e-05
4.18643e-05
3.47692e-05
2.9359e-05
2.61027e-05
2.24539e-05
1.95119e-05
1.71057e-05
1.51113e-05
1.34365e-05
1.20244e-05
1.08243e-05
9.79398e-06
8.90185e-06
8.11737e-06
7.42124e-06
6.81693e-06
6.28814e-06
5.81798e-06
5.39806e-06
5.02137e-06
4.68206e-06
4.3757e-06
4.09893e-06
3.84771e-06
3.61866e-06
3.40913e-06
3.21699e-06
3.0404e-06
2.87775e-06
2.72762e-06
2.5887e-06
2.45986e-06
2.34015e-06
2.2042e-06
2.08834e-06
2.00905e-06
1.90428e-06
1.83887e-06
1.74275e-06
1.68955e-06
1.60009e-06
1.5579e-06
1.45868e-06
8.15467e-05
6.3881e-05
5.11868e-05
4.18641e-05
3.47695e-05
2.93586e-05
2.61196e-05
2.24696e-05
1.95256e-05
1.71171e-05
1.51203e-05
1.34424e-05
1.20272e-05
1.08243e-05
9.79168e-06
8.89826e-06
8.11354e-06
7.41696e-06
6.81353e-06
6.28611e-06
5.81717e-06
5.39805e-06
5.02169e-06
4.6821e-06
4.37522e-06
4.09774e-06
3.84579e-06
3.61613e-06
3.40616e-06
3.21373e-06
3.03694e-06
2.87418e-06
2.72409e-06
2.58543e-06
2.45712e-06
2.33816e-06
2.20415e-06
2.08828e-06
2.00899e-06
1.90421e-06
1.83879e-06
1.74267e-06
1.68947e-06
1.60001e-06
1.55782e-06
1.45861e-06
8.15489e-05
6.38781e-05
5.11834e-05
4.18537e-05
3.47653e-05
2.93583e-05
2.6107e-05
2.24581e-05
1.95155e-05
1.71088e-05
1.51127e-05
1.3438e-05
1.20252e-05
1.08235e-05
9.79195e-06
8.89835e-06
8.11299e-06
7.41985e-06
6.81627e-06
6.28768e-06
5.81836e-06
5.39897e-06
5.02237e-06
4.68329e-06
4.37698e-06
4.09984e-06
3.84797e-06
3.6182e-06
3.40801e-06
3.21533e-06
3.03831e-06
2.87538e-06
2.72513e-06
2.58631e-06
2.4578e-06
2.33861e-06
2.20418e-06
2.08831e-06
2.00902e-06
1.90425e-06
1.83884e-06
1.74273e-06
1.68954e-06
1.60007e-06
1.55788e-06
1.45866e-06
8.15546e-05
6.38814e-05
5.11832e-05
4.18422e-05
3.476e-05
2.9355e-05
2.61033e-05
2.24539e-05
1.9511e-05
1.71037e-05
1.51092e-05
1.34381e-05
1.20261e-05
1.08221e-05
9.7861e-06
8.88741e-06
8.10423e-06
7.42017e-06
6.81932e-06
6.28839e-06
5.81747e-06
5.39726e-06
5.02044e-06
4.68171e-06
4.37616e-06
4.09921e-06
3.84737e-06
3.61762e-06
3.40754e-06
3.21502e-06
3.03817e-06
2.87538e-06
2.72523e-06
2.58643e-06
2.45785e-06
2.33852e-06
2.20411e-06
2.08824e-06
2.00895e-06
1.9042e-06
1.83881e-06
1.74275e-06
1.68957e-06
1.60012e-06
1.55792e-06
1.45871e-06
8.15718e-05
6.39112e-05
5.11972e-05
4.18556e-05
3.47623e-05
2.93623e-05
2.61207e-05
2.24702e-05
1.9525e-05
1.71148e-05
1.51164e-05
1.3441e-05
1.20267e-05
1.0819e-05
9.77955e-06
8.88042e-06
8.1029e-06
7.41947e-06
6.82132e-06
6.29187e-06
5.81934e-06
5.39608e-06
5.01899e-06
4.68076e-06
4.37547e-06
4.0988e-06
3.84722e-06
3.6177e-06
3.4078e-06
3.21531e-06
3.03838e-06
2.87542e-06
2.72506e-06
2.5861e-06
2.45749e-06
2.33824e-06
2.20413e-06
2.08827e-06
2.00892e-06
1.90413e-06
1.83871e-06
1.74268e-06
1.68949e-06
1.60003e-06
1.55783e-06
1.45861e-06
8.16045e-05
6.39508e-05
5.12246e-05
4.18761e-05
3.47821e-05
2.9383e-05
2.61383e-05
2.24821e-05
1.95312e-05
1.71144e-05
1.51101e-05
1.34362e-05
1.20254e-05
1.08202e-05
9.7881e-06
8.88947e-06
8.11046e-06
7.4268e-06
6.82816e-06
6.29861e-06
5.82713e-06
5.40308e-06
5.02218e-06
4.68256e-06
4.37603e-06
4.09836e-06
3.84595e-06
3.61564e-06
3.40575e-06
3.21359e-06
3.03715e-06
2.87488e-06
2.72526e-06
2.58689e-06
2.45878e-06
2.33971e-06
2.20426e-06
2.08834e-06
2.009e-06
1.9042e-06
1.83877e-06
1.74272e-06
1.68954e-06
1.60013e-06
1.55793e-06
1.45873e-06
8.16266e-05
6.39696e-05
5.12392e-05
4.18688e-05
3.48051e-05
2.93612e-05
2.50772e-05
2.16467e-05
1.88676e-05
1.71407e-05
1.51277e-05
1.34525e-05
1.20387e-05
1.08348e-05
9.80067e-06
8.9001e-06
8.1146e-06
7.43079e-06
6.83104e-06
6.30053e-06
5.82856e-06
5.40562e-06
5.02338e-06
4.68202e-06
4.37537e-06
4.09758e-06
3.84559e-06
3.61626e-06
3.35771e-06
3.16107e-06
2.99761e-06
2.82825e-06
2.69176e-06
2.54451e-06
2.43043e-06
2.30053e-06
2.20513e-06
2.08907e-06
2.00964e-06
1.90466e-06
1.83916e-06
1.74295e-06
1.68972e-06
1.60022e-06
1.55801e-06
1.45873e-06
8.16545e-05
6.3971e-05
5.12104e-05
4.18337e-05
3.47815e-05
2.93314e-05
2.50545e-05
2.16239e-05
1.88493e-05
1.65565e-05
1.46616e-05
1.3062e-05
1.17184e-05
1.05551e-05
9.5629e-06
8.69216e-06
7.94517e-06
7.27874e-06
6.70353e-06
6.18217e-06
5.72965e-06
5.31167e-06
4.94807e-06
4.60827e-06
4.31552e-06
4.03654e-06
3.7968e-06
3.56302e-06
3.36536e-06
3.16784e-06
3.00376e-06
2.83371e-06
2.69665e-06
2.54886e-06
2.43435e-06
2.30403e-06
2.2083e-06
2.0919e-06
2.01223e-06
1.90694e-06
1.84123e-06
1.74472e-06
1.69134e-06
1.60162e-06
1.5593e-06
1.45971e-06
8.16505e-05
6.39268e-05
5.11613e-05
4.17914e-05
3.47471e-05
2.93056e-05
2.50362e-05
2.16105e-05
1.88399e-05
1.65501e-05
1.46561e-05
1.30582e-05
1.17129e-05
1.0551e-05
9.55844e-06
8.69179e-06
7.94602e-06
7.2813e-06
6.70578e-06
6.18479e-06
5.7318e-06
5.31496e-06
4.95132e-06
4.61086e-06
4.3175e-06
4.03839e-06
3.79864e-06
3.56443e-06
3.36676e-06
3.16919e-06
3.00507e-06
2.83484e-06
2.69769e-06
2.54975e-06
2.43529e-06
2.305e-06
2.20923e-06
2.09282e-06
2.01306e-06
1.9077e-06
1.84193e-06
1.74534e-06
1.69191e-06
1.60211e-06
1.55977e-06
1.45992e-06
8.1632e-05
6.39025e-05
5.11383e-05
4.17622e-05
3.47183e-05
2.92835e-05
2.50218e-05
2.16007e-05
1.88345e-05
1.65478e-05
1.4653e-05
1.3053e-05
1.17086e-05
1.05473e-05
9.55901e-06
8.69219e-06
7.94629e-06
7.28118e-06
6.70559e-06
6.18429e-06
5.73117e-06
5.31403e-06
4.95171e-06
4.61295e-06
4.31951e-06
4.03979e-06
3.7996e-06
3.56514e-06
3.36715e-06
3.1689e-06
3.00455e-06
2.83455e-06
2.69746e-06
2.54953e-06
2.4351e-06
2.30484e-06
2.20908e-06
2.09269e-06
2.01294e-06
1.9076e-06
1.84184e-06
1.74525e-06
1.69183e-06
1.60203e-06
1.55969e-06
1.45985e-06
8.16352e-05
6.39638e-05
5.11885e-05
4.18131e-05
3.47524e-05
2.93162e-05
2.50447e-05
2.16204e-05
1.88509e-05
1.71339e-05
1.51253e-05
1.34507e-05
1.20365e-05
1.0827e-05
9.79026e-06
8.89528e-06
8.11632e-06
7.43245e-06
6.83239e-06
6.30162e-06
5.82953e-06
5.40671e-06
5.02657e-06
4.68644e-06
4.37995e-06
4.10227e-06
3.84997e-06
3.61965e-06
3.35876e-06
3.16153e-06
2.998e-06
2.82865e-06
2.69214e-06
2.54474e-06
2.43074e-06
2.30075e-06
2.20535e-06
2.08927e-06
2.00982e-06
1.90481e-06
1.83928e-06
1.74298e-06
1.68973e-06
1.60019e-06
1.55797e-06
1.45863e-06
8.16043e-05
6.39512e-05
5.12238e-05
4.18773e-05
3.47804e-05
2.93854e-05
2.61252e-05
2.2468e-05
1.95178e-05
1.71006e-05
1.50966e-05
1.34259e-05
1.20152e-05
1.08109e-05
9.77798e-06
8.88162e-06
8.09997e-06
7.4161e-06
6.81807e-06
6.28933e-06
5.81921e-06
5.39822e-06
5.01784e-06
4.67784e-06
4.37223e-06
4.09505e-06
3.843e-06
3.61295e-06
3.40325e-06
3.21117e-06
3.03464e-06
2.87239e-06
2.72268e-06
2.58448e-06
2.45667e-06
2.33807e-06
2.20417e-06
2.08822e-06
2.00891e-06
1.90402e-06
1.83861e-06
1.74244e-06
1.6893e-06
1.59989e-06
1.55775e-06
1.45872e-06
8.1557e-05
6.38746e-05
5.12297e-05
4.18734e-05
3.48625e-05
3.07217e-05
2.61251e-05
2.24685e-05
1.95148e-05
1.71019e-05
1.50978e-05
1.34234e-05
1.20147e-05
1.08141e-05
9.78329e-06
8.88361e-06
8.09732e-06
7.41208e-06
6.81464e-06
6.28638e-06
5.81635e-06
5.39429e-06
5.01265e-06
4.67314e-06
4.36751e-06
4.09085e-06
3.83963e-06
3.61004e-06
3.4003e-06
3.20812e-06
3.03152e-06
2.86895e-06
2.71884e-06
2.57999e-06
2.45147e-06
2.33199e-06
2.22098e-06
2.08812e-06
2.00881e-06
1.904e-06
1.83857e-06
1.74257e-06
1.68939e-06
1.60009e-06
1.5579e-06
1.45896e-06
8.1516e-05
6.38245e-05
5.12042e-05
4.18607e-05
3.4867e-05
3.07253e-05
2.61293e-05
2.24809e-05
1.9532e-05
1.71147e-05
1.5113e-05
1.34345e-05
1.20163e-05
1.08121e-05
9.77894e-06
8.87652e-06
8.0933e-06
7.40887e-06
6.81198e-06
6.28428e-06
5.81376e-06
5.38828e-06
5.00976e-06
4.6722e-06
4.36713e-06
4.09069e-06
3.83932e-06
3.60988e-06
3.40018e-06
3.20792e-06
3.03132e-06
2.86861e-06
2.71844e-06
2.5796e-06
2.45102e-06
2.33172e-06
2.22079e-06
2.08803e-06
2.00872e-06
1.90395e-06
1.83856e-06
1.74267e-06
1.68952e-06
1.60019e-06
1.55801e-06
1.45904e-06
8.15065e-05
6.38112e-05
5.11993e-05
4.18485e-05
3.48597e-05
3.07177e-05
2.61244e-05
2.24758e-05
1.95309e-05
1.71211e-05
1.51226e-05
1.34497e-05
1.2032e-05
1.0824e-05
9.77992e-06
8.87605e-06
8.09658e-06
7.41216e-06
6.81481e-06
6.2854e-06
5.81096e-06
5.38668e-06
5.01062e-06
4.67307e-06
4.36811e-06
4.09154e-06
3.84009e-06