/*--------------------------------*- C++ -*----------------------------------*\
  =========                 |
  \\      /  F ield         | OpenFOAM: The Open Source CFD Toolbox
   \\    /   O peration     | Website:  https://openfoam.org
    \\  /    A nd           | Version:  7
     \\/     M anipulation  |
\*---------------------------------------------------------------------------*/
FoamFile
{
    version     2.0;
    format      ascii;
    class       volScalarField;
    location    "500";
    object      k;
}
// * * * * * * * * * * * * * * * * * * * * * * * * * * * * * * * * * * * * * //

dimensions      [0 2 -2 0 0 0 0];

internalField   nonuniform List<scalar> 
158652
(
0.000139327
0.000122446
0.000108921
9.79009e-05
8.88868e-05
8.12612e-05
7.48561e-05
6.92624e-05
6.44877e-05
6.02231e-05
5.65492e-05
5.32032e-05
5.03033e-05
4.76037e-05
4.52621e-05
4.3032e-05
4.11023e-05
3.9231e-05
3.76216e-05
3.60261e-05
3.4666e-05
3.32866e-05
3.21239e-05
3.09122e-05
2.99079e-05
2.88354e-05
2.79686e-05
2.70161e-05
2.62636e-05
2.54061e-05
2.47502e-05
2.39723e-05
2.33981e-05
2.26869e-05
2.21832e-05
2.15267e-05
2.10856e-05
2.04758e-05
2.0089e-05
1.9516e-05
1.91783e-05
1.86357e-05
1.83441e-05
1.78269e-05
1.75783e-05
1.69814e-05
0.000139338
0.000122455
0.000108925
9.79103e-05
8.88938e-05
8.12675e-05
7.48604e-05
6.92757e-05
6.44985e-05
6.02333e-05
5.65602e-05
5.32062e-05
5.03072e-05
4.76068e-05
4.52629e-05
4.30332e-05
4.1103e-05
3.92315e-05
3.76219e-05
3.60265e-05
3.46662e-05
3.32866e-05
3.21226e-05
3.09117e-05
2.99077e-05
2.88376e-05
2.79712e-05
2.70193e-05
2.6266e-05
2.54094e-05
2.47526e-05
2.39752e-05
2.34e-05
2.26893e-05
2.21848e-05
2.15287e-05
2.10868e-05
2.04767e-05
2.00895e-05
1.95161e-05
1.91783e-05
1.86357e-05
1.83442e-05
1.78269e-05
1.75784e-05
1.69814e-05
0.000139316
0.000122423
0.0001089
9.78912e-05
8.8876e-05
8.1257e-05
7.48537e-05
6.9276e-05
6.45053e-05
6.02437e-05
5.65668e-05
5.32187e-05
5.0308e-05
4.76065e-05
4.52624e-05
4.30346e-05
4.11049e-05
3.92342e-05
3.76242e-05
3.60298e-05
3.46689e-05
3.32894e-05
3.21259e-05
3.0918e-05
2.99148e-05
2.88457e-05
2.79791e-05
2.7026e-05
2.6272e-05
2.54158e-05
2.47584e-05
2.39808e-05
2.34048e-05
2.26936e-05
2.2189e-05
2.15326e-05
2.10899e-05
2.04795e-05
2.00916e-05
1.95176e-05
1.91798e-05
1.86371e-05
1.83455e-05
1.78282e-05
1.75796e-05
1.69826e-05
0.000139298
0.000122394
0.000108868
9.78502e-05
8.88356e-05
8.12222e-05
7.48293e-05
6.92571e-05
6.44968e-05
6.02437e-05
5.65674e-05
5.32169e-05
5.03152e-05
4.76081e-05
4.52616e-05
4.30332e-05
4.11032e-05
3.92317e-05
3.76212e-05
3.60263e-05
3.46646e-05
3.32845e-05
3.21219e-05
3.09158e-05
2.99153e-05
2.88484e-05
2.79816e-05
2.70277e-05
2.62741e-05
2.54183e-05
2.47603e-05
2.39828e-05
2.34061e-05
2.26946e-05
2.21898e-05
2.15335e-05
2.109e-05
2.04787e-05
2.00905e-05
1.95165e-05
1.91788e-05
1.86361e-05
1.83445e-05
1.78272e-05
1.75787e-05
1.69817e-05
0.000139264
0.000122408
0.000108813
9.78534e-05
8.87594e-05
8.12185e-05
7.47567e-05
6.92682e-05
6.44359e-05
6.0272e-05
5.65225e-05
5.41297e-05
5.10836e-05
4.83461e-05
4.58738e-05
4.36316e-05
4.15922e-05
3.97289e-05
3.80215e-05
3.64508e-05
3.49993e-05
3.3658e-05
3.24143e-05
3.12572e-05
3.01778e-05
2.91682e-05
2.79798e-05
2.70292e-05
2.6277e-05
2.54219e-05
2.47643e-05
2.39875e-05
2.3411e-05
2.26995e-05
2.21944e-05
2.1538e-05
2.10945e-05
2.04831e-05
2.00954e-05
1.95218e-05
1.91844e-05
1.8642e-05
1.83507e-05
1.78336e-05
1.75852e-05
1.69884e-05
0.000139264
0.000122415
0.000108813
9.78597e-05
8.87561e-05
8.1212e-05
7.4735e-05
6.92604e-05
6.4415e-05
6.02657e-05
5.74699e-05
5.40666e-05
5.10295e-05
4.83018e-05
4.58381e-05
4.36023e-05
4.1564e-05
3.97014e-05
3.79941e-05
3.64241e-05
3.49762e-05
3.36356e-05
3.23897e-05
3.12274e-05
3.01397e-05
2.91193e-05
2.81607e-05
2.70311e-05
2.62788e-05
2.54237e-05
2.47663e-05
2.39894e-05
2.34133e-05
2.27015e-05
2.21962e-05
2.15392e-05
2.1096e-05
2.04845e-05
2.00969e-05
1.95233e-05
1.9186e-05
1.86437e-05
1.83524e-05
1.78356e-05
1.75872e-05
1.69906e-05
0.000139275
0.000122439
0.000108843
9.78909e-05
8.878e-05
8.12209e-05
7.47353e-05
6.92615e-05
6.44139e-05
6.02653e-05
5.74717e-05
5.40656e-05
5.10255e-05
4.82967e-05
4.58342e-05
4.36011e-05
4.15636e-05
3.96959e-05
3.79839e-05
3.64092e-05
3.49546e-05
3.36081e-05
3.23591e-05
3.11988e-05
3.01188e-05
2.91107e-05
2.81662e-05
2.7032e-05
2.62794e-05
2.54242e-05
2.47666e-05
2.39896e-05
2.34133e-05
2.27015e-05
2.21961e-05
2.1539e-05
2.10958e-05
2.04843e-05
2.00966e-05
1.95231e-05
1.91857e-05
1.86435e-05
1.83523e-05
1.78355e-05
1.75871e-05
1.69906e-05
0.000139286
0.000122468
0.000108869
9.79112e-05
8.87855e-05
8.12226e-05
7.47343e-05
6.92634e-05
6.44134e-05
6.02673e-05
5.74069e-05
5.40034e-05
5.09691e-05
4.82476e-05
4.57935e-05
4.357e-05
4.15457e-05
3.96899e-05
3.79903e-05
3.64262e-05
3.49788e-05
3.3636e-05
3.23867e-05
3.12217e-05
3.01334e-05
2.91158e-05
2.81629e-05
2.70312e-05
2.62787e-05
2.54235e-05
2.4766e-05
2.3989e-05
2.34128e-05
2.27012e-05
2.21958e-05
2.1539e-05
2.10958e-05
2.04845e-05
2.00968e-05
1.95234e-05
1.9186e-05
1.86437e-05
1.83525e-05
1.78357e-05
1.75873e-05
1.69908e-05
0.000139286
0.000122468
0.000108869
9.7911e-05
8.87858e-05
8.12224e-05
7.47346e-05
6.92632e-05
6.44139e-05
6.0267e-05
5.74361e-05
5.40322e-05
5.09961e-05
4.82711e-05
4.58115e-05
4.3581e-05
4.15488e-05
3.96854e-05
3.79798e-05
3.64115e-05
3.49623e-05
3.36177e-05
3.23676e-05
3.12033e-05
3.01174e-05
2.91032e-05
2.81543e-05
2.70324e-05
2.62801e-05
2.54251e-05
2.47677e-05
2.39907e-05
2.34144e-05
2.27026e-05
2.2197e-05
2.15399e-05
2.10965e-05
2.04848e-05
2.0097e-05
1.95234e-05
1.91859e-05
1.86436e-05
1.83523e-05
1.78355e-05
1.75872e-05
1.69907e-05
0.000139275
0.000122439
0.000108842
9.78915e-05
8.87792e-05
8.12216e-05
7.47343e-05
6.92623e-05
6.44129e-05
6.0266e-05
5.74676e-05
5.40574e-05
5.10127e-05
4.82802e-05
4.58167e-05
4.35866e-05
4.15607e-05
3.97071e-05
3.80114e-05
3.64515e-05
3.50076e-05
3.36659e-05
3.24151e-05
3.12466e-05
3.01518e-05
2.91266e-05
2.81649e-05
2.70308e-05
2.62783e-05
2.54232e-05
2.47658e-05
2.39889e-05
2.34126e-05
2.2701e-05
2.21956e-05
2.15388e-05
2.10957e-05
2.04844e-05
2.00968e-05
1.95234e-05
1.91861e-05
1.86438e-05
1.83526e-05
1.78357e-05
1.75873e-05
1.69907e-05
0.000139265
0.000122416
0.000108813
9.78608e-05
8.87557e-05
8.12128e-05
7.47344e-05
6.92613e-05
6.44143e-05
6.02666e-05
5.74074e-05
5.40044e-05
5.09699e-05
4.82477e-05
4.57914e-05
4.35631e-05
4.15296e-05
3.96666e-05
3.79561e-05
3.63814e-05
3.4928e-05
3.35838e-05
3.23381e-05
3.11809e-05
3.01042e-05
2.90976e-05
2.81548e-05
2.70316e-05
2.62794e-05
2.54242e-05
2.47669e-05
2.399e-05
2.34138e-05
2.27021e-05
2.21966e-05
2.15396e-05
2.10962e-05
2.04848e-05
2.0097e-05
1.95234e-05
1.9186e-05
1.86437e-05
1.83523e-05
1.78354e-05
1.7587e-05
1.69904e-05
0.000139268
0.000122413
0.000108817
9.78553e-05
8.87606e-05
8.12187e-05
7.47574e-05
6.92683e-05
6.44364e-05
6.02722e-05
5.65227e-05
5.41085e-05
5.10591e-05
4.83148e-05
4.58347e-05
4.35876e-05
4.15463e-05
3.96874e-05
3.79901e-05
3.64338e-05
3.49974e-05
3.36678e-05
3.24289e-05
3.12693e-05
3.01807e-05
2.91573e-05
2.79791e-05
2.70286e-05
2.62765e-05
2.54217e-05
2.47643e-05
2.39877e-05
2.34114e-05
2.27e-05
2.21949e-05
2.15385e-05
2.10951e-05
2.04836e-05
2.00958e-05
1.95222e-05
1.91847e-05
1.86423e-05
1.83509e-05
1.78338e-05
1.75853e-05
1.69885e-05
0.000139304
0.000122402
0.000108873
9.78519e-05
8.8836e-05
8.12225e-05
7.48293e-05
6.92571e-05
6.44968e-05
6.02439e-05
5.65674e-05
5.3217e-05
5.03152e-05
4.76081e-05
4.52615e-05
4.30332e-05
4.11032e-05
3.92316e-05
3.76211e-05
3.60261e-05
3.46646e-05
3.32844e-05
3.21219e-05
3.09159e-05
2.99153e-05
2.88485e-05
2.79816e-05
2.70278e-05
2.62741e-05
2.54183e-05
2.47602e-05
2.39828e-05
2.34061e-05
2.26946e-05
2.21898e-05
2.15334e-05
2.10899e-05
2.04786e-05
2.00904e-05
1.95164e-05
1.91787e-05
1.8636e-05
1.83444e-05
1.78272e-05
1.75786e-05
1.69816e-05
0.000139322
0.000122437
0.000108911
9.78942e-05
8.88772e-05
8.12575e-05
7.48532e-05
6.92751e-05
6.45052e-05
6.0244e-05
5.6567e-05
5.32189e-05
5.03083e-05
4.76064e-05
4.52619e-05
4.30343e-05
4.11053e-05
3.92342e-05
3.76241e-05
3.60297e-05
3.46688e-05
3.32892e-05
3.21258e-05
3.09179e-05
2.99147e-05
2.88456e-05
2.7979e-05
2.70259e-05
2.62719e-05
2.54157e-05
2.47583e-05
2.39806e-05
2.34047e-05
2.26935e-05
2.21889e-05
2.15325e-05
2.10897e-05
2.04794e-05
2.00914e-05
1.95175e-05
1.91797e-05
1.8637e-05
1.83454e-05
1.7828e-05
1.75794e-05
1.69824e-05
0.00013934
0.000122473
0.000108943
9.79161e-05
8.88959e-05
8.12686e-05
7.48605e-05
6.92751e-05
6.44986e-05
6.02339e-05
5.65609e-05
5.3207e-05
5.03083e-05
4.76073e-05
4.52624e-05
4.3033e-05
4.11036e-05
3.92318e-05
3.7622e-05
3.60266e-05
3.46662e-05
3.32865e-05
3.21226e-05
3.09115e-05
2.99076e-05
2.88376e-05
2.79712e-05
2.70194e-05
2.62664e-05
2.54104e-05
2.47536e-05
2.39761e-05
2.34008e-05
2.26899e-05
2.21855e-05
2.15293e-05
2.10871e-05
2.04768e-05
2.00894e-05
1.9516e-05
1.91783e-05
1.86356e-05
1.83441e-05
1.78268e-05
1.75783e-05
1.69813e-05
0.000139353
0.000122487
0.000108945
9.79076e-05
8.88886e-05
8.12621e-05
7.48567e-05
6.92626e-05
6.44881e-05
6.02234e-05
5.65498e-05
5.32045e-05
5.03097e-05
4.76077e-05
4.52618e-05
4.30322e-05
4.1103e-05
3.92312e-05
3.76216e-05
3.60261e-05
3.46659e-05
3.32865e-05
3.21237e-05
3.09115e-05
2.99073e-05
2.88354e-05
2.79688e-05
2.70163e-05
2.62647e-05
2.54093e-05
2.47531e-05
2.39752e-05
2.34004e-05
2.26891e-05
2.21851e-05
2.15286e-05
2.10866e-05
2.0476e-05
2.0089e-05
1.9516e-05
1.91782e-05
1.86356e-05
1.83441e-05
1.78268e-05
1.75783e-05
1.69814e-05
0.000139325
0.000122448
0.000108925
9.79061e-05
8.88923e-05
8.12682e-05
7.48619e-05
6.92771e-05
6.45048e-05
6.02402e-05
5.65633e-05
5.32093e-05
5.031e-05
4.76068e-05
4.52613e-05
4.30317e-05
4.11009e-05
3.92298e-05
3.762e-05
3.60251e-05
3.46646e-05
3.32854e-05
3.2122e-05
3.09119e-05
2.99074e-05
2.88371e-05
2.79703e-05
2.70188e-05
2.62649e-05
2.54088e-05
2.47516e-05
2.39749e-05
2.33994e-05
2.26891e-05
2.21843e-05
2.15287e-05
2.10867e-05
2.04765e-05
2.00891e-05
1.95153e-05
1.91777e-05
1.86352e-05
1.83436e-05
1.78264e-05
1.75779e-05
1.69814e-05
0.000139346
0.000122496
0.000108966
9.79461e-05
8.89259e-05
8.12953e-05
7.48818e-05
6.92938e-05
6.45158e-05
6.0248e-05
5.65749e-05
5.32204e-05
5.03201e-05
4.76164e-05
4.52695e-05
4.30337e-05
4.11013e-05
3.92275e-05
3.76188e-05
3.6023e-05
3.46639e-05
3.32831e-05
3.21187e-05
3.09073e-05
2.99046e-05
2.88364e-05
2.79699e-05
2.70187e-05
2.62644e-05
2.54094e-05
2.47515e-05
2.39754e-05
2.33991e-05
2.26894e-05
2.21841e-05
2.15287e-05
2.1086e-05
2.04755e-05
2.00879e-05
1.95143e-05
1.91767e-05
1.86343e-05
1.83429e-05
1.78258e-05
1.75772e-05
1.69813e-05
0.00013932
0.00012247
0.000108952
9.7942e-05
8.89197e-05
8.12993e-05
7.48876e-05
6.93062e-05
6.45223e-05
6.02541e-05
5.65766e-05
5.32312e-05
5.03228e-05
4.76192e-05
4.5267e-05
4.3033e-05
4.10975e-05
3.92247e-05
3.76137e-05
3.60204e-05
3.46591e-05
3.32791e-05
3.21119e-05
3.09037e-05
2.9903e-05
2.88376e-05
2.79713e-05
2.70207e-05
2.62661e-05
2.54116e-05
2.47535e-05
2.39772e-05
2.34006e-05
2.26905e-05
2.21853e-05
2.15293e-05
2.10862e-05
2.04754e-05
2.00875e-05
1.95141e-05
1.91765e-05
1.86344e-05
1.83429e-05
1.78259e-05
1.75775e-05
1.69816e-05
0.000139266
0.000122455
0.000108883
9.79313e-05
8.88498e-05
8.12979e-05
7.48345e-05
6.93269e-05
6.44909e-05
6.13699e-05
5.75076e-05
5.40959e-05
5.1052e-05
4.83095e-05
4.58388e-05
4.36027e-05
4.15698e-05
3.97073e-05
3.8005e-05
3.64383e-05
3.49907e-05
3.36434e-05
3.23873e-05
3.12241e-05
3.01414e-05
2.91298e-05
2.81836e-05
2.72951e-05
2.62677e-05
2.54147e-05
2.47576e-05
2.39825e-05
2.34064e-05
2.26968e-05
2.2192e-05
2.15362e-05
2.10934e-05
2.04828e-05
2.00953e-05
1.95225e-05
1.91854e-05
1.86437e-05
1.83526e-05
1.7836e-05
1.75877e-05
1.69921e-05
0.00013927
0.000122414
0.000108879
9.7882e-05
8.88402e-05
8.12502e-05
7.48288e-05
6.92919e-05
6.56629e-05
6.1296e-05
5.74444e-05
5.40281e-05
5.09864e-05
4.82533e-05
4.5786e-05
4.35546e-05
4.15293e-05
3.96731e-05
3.79748e-05
3.64115e-05
3.49656e-05
3.3628e-05
3.23873e-05
3.1234e-05
3.01584e-05
2.91512e-05
2.82047e-05
2.73126e-05
2.64725e-05
2.56796e-05
2.4931e-05
2.42236e-05
2.35538e-05
2.29186e-05
2.21936e-05
2.15376e-05
2.10945e-05
2.04839e-05
2.00964e-05
1.95235e-05
1.91863e-05
1.86446e-05
1.83534e-05
1.78367e-05
1.75884e-05
1.69931e-05
0.000139272
0.00012241
0.000108888
9.7873e-05
8.88535e-05
8.12281e-05
7.48467e-05
7.06931e-05
6.56973e-05
6.133e-05
5.7485e-05
5.40764e-05
5.10371e-05
4.83088e-05
4.58458e-05
4.3607e-05
4.15697e-05
3.97083e-05
3.80014e-05
3.64294e-05
3.49786e-05
3.36371e-05
3.23907e-05
3.12288e-05
3.01448e-05
2.91304e-05
2.81791e-05
2.72841e-05
2.64405e-05
2.56446e-05
2.48927e-05
2.41821e-05
2.35103e-05
2.28747e-05
2.22723e-05
2.15414e-05
2.10987e-05
2.0488e-05
2.01007e-05
1.95279e-05
1.91909e-05
1.8649e-05
1.83579e-05
1.78413e-05
1.75931e-05
1.69977e-05
0.000139281
0.000122413
0.000108915
9.7892e-05
8.88712e-05
8.1231e-05
7.48488e-05
7.06722e-05
6.56687e-05
6.12972e-05
5.74483e-05
5.40435e-05
5.10091e-05
4.82875e-05
4.5833e-05
4.36041e-05
4.15644e-05
3.96888e-05
3.79746e-05
3.64025e-05
3.4952e-05
3.36068e-05
3.23565e-05
3.11923e-05
3.01066e-05
2.90927e-05
2.8144e-05
2.72538e-05
2.64161e-05
2.56271e-05
2.48818e-05
2.41766e-05
2.35087e-05
2.28753e-05
2.22742e-05
2.15422e-05
2.10996e-05
2.04891e-05
2.01017e-05
1.95289e-05
1.91916e-05
1.86494e-05
1.83581e-05
1.78411e-05
1.75927e-05
1.69972e-05
0.000139278
0.000122423
0.000108934
9.7908e-05
8.8881e-05
8.12285e-05
7.48548e-05
7.0629e-05
6.56266e-05
6.12523e-05
5.73986e-05
5.3992e-05
5.09568e-05
4.82337e-05
4.57771e-05
4.35505e-05
4.15161e-05
3.96355e-05
3.79258e-05
3.63618e-05
3.49173e-05
3.35804e-05
3.23396e-05
3.11846e-05
3.01066e-05
2.90971e-05
2.81492e-05
2.72581e-05
2.64185e-05
2.56272e-05
2.48799e-05
2.41737e-05
2.35058e-05
2.28734e-05
2.22739e-05
2.15422e-05
2.10995e-05
2.04889e-05
2.01015e-05
1.95286e-05
1.91912e-05
1.86492e-05
1.83579e-05
1.78412e-05
1.75929e-05
1.69975e-05
0.000139282
0.00012242
0.000108936
9.79072e-05
8.88798e-05
8.12299e-05
7.4852e-05
7.06923e-05
6.56945e-05
6.13217e-05
5.74656e-05
5.4053e-05
5.10109e-05
4.82834e-05
4.58258e-05
4.35998e-05
4.15659e-05
3.96862e-05
3.79761e-05
3.64107e-05
3.49633e-05
3.36215e-05
3.23755e-05
3.12164e-05
3.01356e-05
2.91253e-05
2.8177e-05
2.72855e-05
2.64449e-05
2.56516e-05
2.49012e-05
2.41908e-05
2.35179e-05
2.28804e-05
2.22759e-05
2.15418e-05
2.10992e-05
2.04888e-05
2.01014e-05
1.95286e-05
1.91913e-05
1.86492e-05
1.8358e-05
1.78411e-05
1.75928e-05
1.69973e-05
0.000139279
0.000122416
0.000108914
9.78932e-05
8.8872e-05
8.12302e-05
7.48508e-05
7.06797e-05
6.56794e-05
6.13077e-05
5.7455e-05
5.40476e-05
5.10105e-05
4.82857e-05
4.58277e-05
4.35994e-05
4.1561e-05
3.96775e-05
3.79621e-05
3.63905e-05
3.49381e-05
3.35903e-05
3.23387e-05
3.11753e-05
3.00908e-05
2.90787e-05
2.8131e-05
2.7241e-05
2.64027e-05
2.56126e-05
2.48663e-05
2.41609e-05
2.34942e-05
2.28639e-05
2.22679e-05
2.15422e-05
2.10995e-05
2.04889e-05
2.01015e-05
1.95286e-05
1.91913e-05
1.86492e-05
1.8358e-05
1.78413e-05
1.7593e-05
1.69975e-05
0.000139283
0.000122407
0.0001089
9.78677e-05
8.88609e-05
8.12219e-05
7.48521e-05
7.06657e-05
6.56643e-05
6.1296e-05
5.7455e-05
5.40557e-05
5.10265e-05
4.83079e-05
4.58533e-05
4.362e-05
4.15789e-05
3.97117e-05
3.7999e-05
3.64243e-05
3.4972e-05
3.36259e-05
3.23753e-05
3.12115e-05
3.01261e-05
2.9113e-05
2.81645e-05
2.72728e-05
2.6433e-05
2.56406e-05
2.48914e-05
2.41823e-05
2.35107e-05
2.28743e-05
2.22708e-05
2.15412e-05
2.10982e-05
2.04876e-05
2.00999e-05
1.9527e-05
1.91896e-05
1.86476e-05
1.83563e-05
1.78395e-05
1.75912e-05
1.69959e-05
0.000139287
0.000122431
0.0001089
9.78867e-05
8.88468e-05
8.1248e-05
7.48322e-05
6.92906e-05
6.56807e-05
6.13122e-05
5.74668e-05
5.40592e-05
5.10202e-05
4.82903e-05
4.58232e-05
4.35854e-05
4.15546e-05
3.96967e-05
3.79954e-05
3.6428e-05
3.49777e-05
3.36365e-05
3.23907e-05
3.12299e-05
3.0148e-05
2.91363e-05
2.81889e-05
2.72997e-05
2.64634e-05
2.56746e-05
2.4929e-05
2.4223e-05
2.3554e-05
2.29195e-05
2.21936e-05
2.15376e-05
2.10947e-05
2.04842e-05
2.00968e-05
1.9524e-05
1.91869e-05
1.86453e-05
1.83543e-05
1.78377e-05
1.75895e-05
1.69942e-05
0.000139287
0.000122485
0.000108904
9.79384e-05
8.88525e-05
8.12981e-05
7.48354e-05
6.93263e-05
6.44922e-05
6.13518e-05
5.74929e-05
5.40762e-05
5.10321e-05
4.82903e-05
4.58146e-05
4.35751e-05
4.15396e-05
3.96747e-05
3.79719e-05
3.64077e-05
3.49651e-05
3.36275e-05
3.23853e-05
3.12317e-05
3.01533e-05
2.91408e-05
2.81876e-05
2.72882e-05
2.62675e-05
2.54145e-05
2.47575e-05
2.39825e-05
2.34064e-05
2.26969e-05
2.21922e-05
2.15364e-05
2.10936e-05
2.0483e-05
2.00955e-05
1.95227e-05
1.91855e-05
1.86439e-05
1.83527e-05
1.78361e-05
1.75878e-05
1.69923e-05
0.000139332
0.000122491
0.000108969
9.79486e-05
8.89218e-05
8.12994e-05
7.48835e-05
6.93021e-05
6.45215e-05
6.02548e-05
5.65763e-05
5.32313e-05
5.03223e-05
4.762e-05
4.52669e-05
4.30351e-05
4.10962e-05
3.92236e-05
3.76112e-05
3.60192e-05
3.46567e-05
3.32768e-05
3.2109e-05
3.09016e-05
2.99013e-05
2.88354e-05
2.79692e-05
2.7018e-05
2.62645e-05
2.54107e-05
2.47526e-05
2.39765e-05
2.33999e-05
2.26898e-05
2.21846e-05
2.15285e-05
2.10853e-05
2.04744e-05
2.00865e-05
1.95131e-05
1.91755e-05
1.86334e-05
1.8342e-05
1.7825e-05
1.75765e-05
1.69807e-05
0.000139354
0.000122504
0.00010897
9.79464e-05
8.89258e-05
8.12934e-05
7.4877e-05
6.92879e-05
6.45136e-05
6.02485e-05
5.65772e-05
5.32248e-05
5.03247e-05
4.76178e-05
4.52686e-05
4.30334e-05
4.11023e-05
3.92279e-05
3.76186e-05
3.60233e-05
3.46636e-05
3.32827e-05
3.21172e-05
3.09058e-05
2.99034e-05
2.88362e-05
2.79701e-05
2.70188e-05
2.6266e-05
2.54126e-05
2.47548e-05
2.39783e-05
2.34016e-05
2.26914e-05
2.21862e-05
2.15302e-05
2.1087e-05
2.0476e-05
2.00881e-05
1.95145e-05
1.91768e-05
1.86345e-05
1.8343e-05
1.78259e-05
1.75774e-05
1.69814e-05
0.000139355
0.000122471
0.000108925
9.79038e-05
8.88902e-05
8.12664e-05
7.48594e-05
6.92746e-05
6.45031e-05
6.02413e-05
5.65706e-05
5.3223e-05
5.03187e-05
4.76111e-05
4.52625e-05
4.30322e-05
4.11019e-05
3.92301e-05
3.76201e-05
3.60252e-05
3.46648e-05
3.32855e-05
3.21211e-05
3.09082e-05
2.99044e-05
2.88362e-05
2.79711e-05
2.70196e-05
2.62674e-05
2.54137e-05
2.47565e-05
2.39793e-05
2.3403e-05
2.26922e-05
2.21875e-05
2.15313e-05
2.10885e-05
2.04775e-05
2.00895e-05
1.95157e-05
1.9178e-05
1.86355e-05
1.8344e-05
1.78268e-05
1.75782e-05
1.69817e-05
0.000139319
0.000122432
0.000108907
9.7892e-05
8.88766e-05
8.12577e-05
7.48536e-05
6.92754e-05
6.45071e-05
6.02484e-05
5.65697e-05
5.3219e-05
5.03083e-05
4.76064e-05
4.52618e-05
4.30339e-05
4.11043e-05
3.92338e-05
3.76237e-05
3.60295e-05
3.46684e-05
3.32891e-05
3.21256e-05
3.09174e-05
2.99141e-05
2.8845e-05
2.79782e-05
2.70253e-05
2.6271e-05
2.54146e-05
2.4757e-05
2.39802e-05
2.3404e-05
2.26932e-05
2.21885e-05
2.15323e-05
2.10895e-05
2.04792e-05
2.00913e-05
1.95173e-05
1.91795e-05
1.86368e-05
1.83452e-05
1.78279e-05
1.75793e-05
1.69823e-05
0.000139332
0.000122488
0.000108969
9.79475e-05
8.89231e-05
8.12997e-05
7.48866e-05
6.93006e-05
6.45222e-05
6.02555e-05
5.65816e-05
5.32317e-05
5.03253e-05
4.76194e-05
4.52704e-05
4.30341e-05
4.10978e-05
3.92235e-05
3.76131e-05
3.60187e-05
3.46583e-05
3.32772e-05
3.21109e-05
3.09004e-05
2.99012e-05
2.88342e-05
2.79691e-05
2.70169e-05
2.62639e-05
2.5409e-05
2.47508e-05
2.39751e-05
2.33985e-05
2.26887e-05
2.21835e-05
2.15276e-05
2.10845e-05
2.04737e-05
2.0086e-05
1.95123e-05
1.91748e-05
1.86325e-05
1.83411e-05
1.78242e-05
1.75758e-05
1.69804e-05
0.000139274
0.000122497
0.000108957
9.80167e-05
8.89201e-05
8.13772e-05
7.48846e-05
6.93763e-05
6.45102e-05
6.13833e-05
5.75222e-05
5.41106e-05
5.10671e-05
4.83374e-05
4.58732e-05
4.36268e-05
4.15858e-05
3.97249e-05
3.80287e-05
3.64692e-05
3.50275e-05
3.36915e-05
3.24432e-05
3.12682e-05
3.01825e-05
2.91636e-05
2.82057e-05
2.73029e-05
2.6261e-05
2.54088e-05
2.47521e-05
2.39777e-05
2.3402e-05
2.2693e-05
2.21887e-05
2.15333e-05
2.10909e-05
2.04805e-05
2.00934e-05
1.95206e-05
1.91838e-05
1.86424e-05
1.83516e-05
1.78354e-05
1.75872e-05
1.69929e-05
0.000139252
0.000122417
0.000108946
9.79813e-05
8.89243e-05
8.13553e-05
7.65118e-05
7.07323e-05
6.5723e-05
6.13413e-05
5.7476e-05
5.40644e-05
5.10233e-05
4.82904e-05
4.58288e-05
4.35821e-05
4.15496e-05
3.96875e-05
3.79889e-05
3.64266e-05
3.49836e-05
3.36443e-05
3.2391e-05
3.12309e-05
3.01523e-05
2.91417e-05
2.81946e-05
2.7303e-05
2.64642e-05
2.56746e-05
2.49286e-05
2.42235e-05
2.35554e-05
2.29223e-05
2.23216e-05
2.17501e-05
2.11015e-05
2.04911e-05
2.01039e-05
1.95315e-05
1.91946e-05
1.86537e-05
1.83627e-05
1.78467e-05
1.75985e-05
1.70042e-05
0.000139228
0.000122381
0.000108917
9.79508e-05
8.88962e-05
8.13229e-05
7.64639e-05
7.06906e-05
6.56987e-05
6.13377e-05
5.74927e-05
5.40774e-05
5.10365e-05
4.82988e-05
4.58308e-05
4.35853e-05
4.15538e-05
3.96902e-05
3.79913e-05
3.64287e-05
3.49806e-05
3.36305e-05
3.23813e-05
3.12255e-05
3.0147e-05
2.91381e-05
2.81926e-05
2.73036e-05
2.64676e-05
2.56791e-05
2.4934e-05
2.42288e-05
2.35607e-05
2.29274e-05
2.23269e-05
2.17567e-05
2.11017e-05
2.04915e-05
2.01043e-05
1.95318e-05
1.91949e-05
1.86539e-05
1.83629e-05
1.78464e-05
1.75981e-05
1.70037e-05
0.000139224
0.000122373
0.000108913
9.79435e-05
8.88942e-05
8.1314e-05
7.64376e-05
7.06619e-05
6.56706e-05
6.13157e-05
5.74825e-05
5.40827e-05
5.10481e-05
4.83205e-05
4.585e-05
4.36053e-05
4.1571e-05
3.97073e-05
3.80032e-05
3.643e-05
3.49745e-05
3.3625e-05
3.23763e-05
3.12175e-05
3.01396e-05
2.91338e-05
2.81926e-05
2.73086e-05
2.64757e-05
2.56893e-05
2.49453e-05
2.42405e-05
2.35722e-05
2.29383e-05
2.23371e-05
2.17666e-05
2.11008e-05
2.04907e-05
2.01037e-05
1.95316e-05
1.91948e-05
1.86535e-05
1.83625e-05
1.78458e-05
1.75975e-05
1.70029e-05
0.000139221
0.00012238
0.000108915
9.7965e-05
8.88999e-05
8.13213e-05
7.65084e-05
7.07334e-05
6.57388e-05
6.13762e-05
5.75282e-05
5.41091e-05
5.10593e-05
4.83233e-05
4.58564e-05
4.36153e-05
4.15624e-05
3.96856e-05
3.79714e-05
3.64047e-05
3.4962e-05
3.36271e-05
3.23859e-05
3.12304e-05
3.01518e-05
2.91424e-05
2.81947e-05
2.73035e-05
2.64641e-05
2.56728e-05
2.4926e-05
2.42205e-05
2.35535e-05
2.2922e-05
2.23231e-05
2.17541e-05
2.11006e-05
2.04903e-05
2.01033e-05
1.95311e-05
1.91943e-05
1.86531e-05
1.83622e-05
1.78457e-05
1.75975e-05
1.70032e-05
0.000139217
0.000122387
0.000108915
9.7984e-05
8.88998e-05
8.1329e-05
7.64048e-05
7.06373e-05
6.56544e-05
6.13068e-05
5.74767e-05
5.40697e-05
5.10365e-05
4.83221e-05
4.58738e-05
4.36507e-05
4.16041e-05
3.97048e-05
3.79831e-05
3.64147e-05
3.49667e-05
3.36265e-05
3.23831e-05
3.1226e-05
3.01473e-05
2.91426e-05
2.82023e-05
2.73184e-05
2.64848e-05
2.56975e-05
2.49531e-05
2.42487e-05
2.35811e-05
2.2947e-05
2.23435e-05
2.17683e-05
2.11015e-05
2.04912e-05
2.01042e-05
1.95319e-05
1.9195e-05
1.86535e-05
1.83624e-05
1.78458e-05
1.75976e-05
1.70031e-05
0.000139216
0.000122388
0.000108916
9.7983e-05
8.89019e-05
8.13268e-05
7.65081e-05
7.07341e-05
6.57411e-05
6.13811e-05
5.75368e-05
5.41124e-05
5.10596e-05
4.83256e-05
4.58604e-05
4.36267e-05
4.15759e-05
3.96756e-05
3.796e-05
3.64011e-05
3.49622e-05
3.36278e-05
3.23861e-05
3.12265e-05
3.0143e-05
2.91318e-05
2.81848e-05
2.72951e-05
2.64574e-05
2.56673e-05
2.49208e-05
2.42149e-05
2.35472e-05
2.29153e-05
2.23163e-05
2.17478e-05
2.11009e-05
2.04906e-05
2.01035e-05
1.95311e-05
1.91941e-05
1.86526e-05
1.83614e-05
1.78449e-05
1.75966e-05
1.70022e-05
0.000139223
0.00012238
0.000108915
9.79679e-05
8.88954e-05
8.13281e-05
7.64326e-05
7.06635e-05
6.56778e-05
6.13271e-05
5.74915e-05
5.40812e-05
5.10413e-05
4.83171e-05
4.58597e-05
4.36286e-05
4.15778e-05
3.96883e-05
3.79736e-05
3.6412e-05
3.49721e-05
3.36382e-05
3.23974e-05
3.12415e-05
3.01617e-05
2.91524e-05
2.82055e-05
2.73145e-05
2.64746e-05
2.56822e-05
2.49338e-05
2.42267e-05
2.35579e-05
2.29244e-05
2.23235e-05
2.17526e-05
2.11013e-05
2.04909e-05
2.01039e-05
1.95316e-05
1.91947e-05
1.86533e-05
1.83622e-05
1.78456e-05
1.75973e-05
1.70028e-05
0.00013923
0.000122381
0.000108919
9.79483e-05
8.88941e-05
8.13157e-05
7.64125e-05
7.06422e-05
6.56559e-05
6.13034e-05
5.74705e-05
5.40685e-05
5.1033e-05
4.83066e-05
4.58419e-05
4.36002e-05
4.15553e-05
3.96895e-05
3.79812e-05
3.64114e-05
3.49664e-05
3.36294e-05
3.23878e-05
3.12329e-05
3.01558e-05
2.91469e-05
2.81999e-05
2.73091e-05
2.64702e-05
2.56793e-05
2.49325e-05
2.42268e-05
2.35589e-05
2.29256e-05
2.2324e-05
2.17516e-05
2.11004e-05
2.04901e-05
2.01031e-05
1.95311e-05
1.91944e-05
1.86535e-05
1.83626e-05
1.78462e-05
1.75979e-05
1.70035e-05
0.000139238
0.00012242
0.000108929
9.79714e-05
8.88936e-05
8.13306e-05
7.65186e-05
7.07417e-05
6.57427e-05
6.13745e-05
5.75228e-05
5.41014e-05
5.10511e-05
4.83087e-05
4.583e-05
4.35831e-05
4.15513e-05
3.96872e-05
3.79871e-05
3.6422e-05
3.49713e-05
3.36237e-05
3.238e-05
3.12263e-05
3.01506e-05
2.91442e-05
2.81999e-05
2.73113e-05
2.64738e-05
2.5683e-05
2.49353e-05
2.42277e-05
2.35575e-05
2.29224e-05
2.23203e-05
2.17488e-05
2.11013e-05
2.04911e-05
2.01037e-05
1.95313e-05
1.91943e-05
1.86533e-05
1.83623e-05
1.78456e-05
1.75972e-05
1.70027e-05
0.00013927
0.000122456
0.000108962
9.7996e-05
8.89207e-05
8.13624e-05
7.65292e-05
7.0745e-05
6.57408e-05
6.13681e-05
5.75138e-05
5.41035e-05
5.10679e-05
4.83359e-05
4.58782e-05
4.36349e-05
4.16003e-05
3.97357e-05
3.80334e-05
3.6466e-05
3.50155e-05
3.36609e-05
3.2399e-05
3.1235e-05
3.01492e-05
2.91342e-05
2.81831e-05
2.72897e-05
2.64524e-05
2.56647e-05
2.49222e-05
2.42211e-05
2.35579e-05
2.29287e-05
2.23316e-05
2.17626e-05
2.11021e-05
2.04915e-05
2.01043e-05
1.95318e-05
1.91949e-05
1.86539e-05
1.8363e-05
1.78467e-05
1.75984e-05
1.70039e-05
0.000139279
0.000122493
0.000108963
9.80108e-05
8.89258e-05
8.13668e-05
7.4883e-05
6.93692e-05
6.45182e-05
6.13601e-05
5.74917e-05
5.40815e-05
5.10428e-05
4.83184e-05
4.58597e-05
4.36139e-05
4.15646e-05
3.97024e-05
3.7999e-05
3.64311e-05
3.49818e-05
3.3633e-05
3.23693e-05
3.12014e-05
3.01183e-05
2.91076e-05
2.81646e-05
2.72821e-05
2.62623e-05
2.54113e-05
2.47547e-05
2.39797e-05
2.34041e-05
2.26947e-05
2.21902e-05
2.15344e-05
2.10918e-05
2.0481e-05
2.00936e-05
1.95206e-05
1.91836e-05
1.8642e-05
1.8351e-05
1.78346e-05
1.75864e-05
1.6992e-05
0.000139324
0.000122469
0.000108953
9.79395e-05
8.89212e-05
8.1292e-05
7.48797e-05
6.92944e-05
6.45229e-05
6.02591e-05
5.65842e-05
5.3235e-05
5.03367e-05
4.7626e-05
4.52712e-05
4.30323e-05
4.10998e-05
3.92247e-05
3.7615e-05
3.60199e-05
3.46598e-05
3.3277e-05
3.21097e-05
3.08999e-05
2.99006e-05
2.88366e-05
2.79707e-05
2.70197e-05
2.62665e-05
2.54136e-05
2.47559e-05
2.39793e-05
2.34026e-05
2.26919e-05
2.21865e-05
2.15298e-05
2.10863e-05
2.04747e-05
2.00869e-05
1.95131e-05
1.91756e-05
1.86332e-05
1.83418e-05
1.78249e-05
1.75764e-05
1.6981e-05
0.00013932
0.000122426
0.000108899
9.78885e-05
8.8875e-05
8.12558e-05
7.48515e-05
6.92731e-05
6.45063e-05
6.02485e-05
5.65739e-05
5.32285e-05
5.03254e-05
4.76174e-05
4.5261e-05
4.30328e-05
4.11031e-05
3.92328e-05
3.76226e-05
3.60287e-05
3.46675e-05
3.32885e-05
3.21216e-05
3.09093e-05
2.99085e-05
2.8844e-05
2.79784e-05
2.70256e-05
2.62729e-05
2.54195e-05
2.47619e-05
2.39844e-05
2.34075e-05
2.26961e-05
2.21909e-05
2.15345e-05
2.1091e-05
2.04794e-05
2.00912e-05
1.95172e-05
1.91794e-05
1.86366e-05
1.8345e-05
1.78278e-05
1.75792e-05
1.69823e-05
0.000139304
0.000122401
0.000108873
9.78517e-05
8.8836e-05
8.12225e-05
7.48286e-05
6.92561e-05
6.44965e-05
6.02438e-05
5.65675e-05
5.3217e-05
5.03153e-05
4.76082e-05
4.52616e-05
4.30332e-05
4.11032e-05
3.92318e-05
3.76214e-05
3.60265e-05
3.4665e-05
3.3285e-05
3.21223e-05
3.09163e-05
2.99156e-05
2.88489e-05
2.7982e-05
2.70281e-05
2.62743e-05
2.54179e-05
2.47595e-05
2.3983e-05
2.34063e-05
2.26949e-05
2.219e-05
2.15337e-05
2.10902e-05
2.04788e-05
2.00906e-05
1.95166e-05
1.91789e-05
1.86362e-05
1.83446e-05
1.78273e-05
1.75788e-05
1.69819e-05
0.000139286
0.000122486
0.000108902
9.79405e-05
8.885e-05
8.13006e-05
7.4829e-05
6.93255e-05
6.44848e-05
6.13702e-05
5.75085e-05
5.40969e-05
5.10534e-05
4.83116e-05
4.58419e-05
4.36069e-05
4.15721e-05
3.97069e-05
3.80015e-05
3.64324e-05
3.49824e-05
3.36363e-05
3.2383e-05
3.12232e-05
3.01438e-05
2.91347e-05
2.81895e-05
2.73009e-05
2.62656e-05
2.54119e-05
2.47553e-05
2.39803e-05
2.34047e-05
2.26947e-05
2.21906e-05
2.15345e-05
2.10918e-05
2.04809e-05
2.00934e-05
1.95204e-05
1.91832e-05
1.86412e-05
1.83501e-05
1.78335e-05
1.75853e-05
1.69906e-05
0.000139271
0.000122456
0.000108963
9.79957e-05
8.89208e-05
8.13626e-05
7.65097e-05
7.07249e-05
6.57208e-05
6.13426e-05
5.7481e-05
5.40676e-05
5.10224e-05
4.82835e-05
4.58166e-05
4.35735e-05
4.15285e-05
3.96615e-05
3.7961e-05
3.63977e-05
3.49547e-05
3.36145e-05
3.23599e-05
3.1199e-05
3.01201e-05
2.91092e-05
2.81614e-05
2.727e-05
2.64341e-05
2.56462e-05
2.49019e-05
2.41995e-05
2.35347e-05
2.29061e-05
2.23112e-05
2.17464e-05
2.11012e-05
2.04904e-05
2.01032e-05
1.95303e-05
1.91934e-05
1.86516e-05
1.8361e-05
1.78448e-05
1.75969e-05
1.70036e-05
0.000139229
0.000122381
0.000108959
9.80112e-05
8.90005e-05
8.32661e-05
7.65176e-05
7.07336e-05
6.57239e-05
6.13546e-05
5.74946e-05
5.40758e-05
5.10371e-05
4.83094e-05
4.58491e-05
4.35983e-05
4.15402e-05
3.96678e-05
3.7967e-05
3.64032e-05
3.49582e-05
3.36121e-05
3.23511e-05
3.11898e-05
3.01093e-05
2.90996e-05
2.8154e-05
2.72638e-05
2.64266e-05
2.56377e-05
2.48925e-05
2.41881e-05
2.35205e-05
2.28874e-05
2.22868e-05
2.1715e-05
2.11713e-05
2.04963e-05
2.01089e-05
1.95362e-05
1.9199e-05
1.8658e-05
1.83669e-05
1.78511e-05
1.76028e-05
1.70099e-05
0.000139191
0.000122332
0.000108928
9.79969e-05
8.90058e-05
8.32782e-05
7.65291e-05
7.07567e-05
6.5754e-05
6.13745e-05
5.75158e-05
5.40851e-05
5.10221e-05
4.82822e-05
4.58142e-05
4.35556e-05
4.15066e-05
3.96384e-05
3.79413e-05
3.63811e-05
3.4936e-05
3.35804e-05
3.23311e-05
3.11784e-05
3.01019e-05
2.90947e-05
2.81497e-05
2.72605e-05
2.64236e-05
2.56342e-05
2.48887e-05
2.41833e-05
2.35152e-05
2.28821e-05
2.22816e-05
2.17114e-05
2.1169e-05
2.04957e-05
2.01083e-05
1.95359e-05
1.9199e-05
1.86588e-05
1.8368e-05
1.78521e-05
1.76039e-05
1.70109e-05
0.00013918
0.00012232
0.000108921
9.79826e-05
8.89943e-05
8.32833e-05
7.65335e-05
7.0754e-05
6.57515e-05
6.13818e-05
5.75292e-05
5.41136e-05
5.10572e-05
4.83154e-05
4.58257e-05
4.35668e-05
4.153e-05
3.96631e-05
3.79651e-05
3.63991e-05
3.49405e-05
3.35867e-05
3.23441e-05
3.11904e-05
3.01136e-05
2.91051e-05
2.81592e-05