/*--------------------------------*- C++ -*----------------------------------*\
  =========                 |
  \\      /  F ield         | OpenFOAM: The Open Source CFD Toolbox
   \\    /   O peration     | Website:  https://openfoam.org
    \\  /    A nd           | Version:  7
     \\/     M anipulation  |
\*---------------------------------------------------------------------------*/
FoamFile
{
    version     2.0;
    format      ascii;
    class       volScalarField;
    location    "500";
    object      nut;
}
// * * * * * * * * * * * * * * * * * * * * * * * * * * * * * * * * * * * * * //

dimensions      [0 2 -1 0 0 0 0];

internalField   nonuniform List<scalar> 
158652
(
2.13953e-05
2.11016e-05
2.08621e-05
2.06352e-05
2.04591e-05
2.02757e-05
2.01405e-05
1.99837e-05
1.98774e-05
1.97381e-05
1.96537e-05
1.95265e-05
1.94598e-05
1.93407e-05
1.92888e-05
1.91746e-05
1.91356e-05
1.9025e-05
1.89973e-05
1.88888e-05
1.8871e-05
1.87639e-05
1.87549e-05
1.86481e-05
1.86469e-05
1.85403e-05
1.8546e-05
1.84408e-05
1.84519e-05
1.8348e-05
1.8363e-05
1.82616e-05
1.82788e-05
1.81811e-05
1.81984e-05
1.81059e-05
1.81209e-05
1.80358e-05
1.80463e-05
1.79705e-05
1.79734e-05
1.79098e-05
1.79018e-05
1.78541e-05
1.78309e-05
1.77786e-05
2.13952e-05
2.11015e-05
2.08622e-05
2.0636e-05
2.04597e-05
2.02767e-05
2.0141e-05
1.99845e-05
1.98777e-05
1.97385e-05
1.96537e-05
1.95262e-05
1.94595e-05
1.93403e-05
1.92885e-05
1.91744e-05
1.91353e-05
1.90247e-05
1.89969e-05
1.88885e-05
1.88707e-05
1.87636e-05
1.87545e-05
1.8648e-05
1.86466e-05
1.85406e-05
1.85458e-05
1.84411e-05
1.84518e-05
1.83484e-05
1.83629e-05
1.8262e-05
1.82786e-05
1.81814e-05
1.81982e-05
1.81061e-05
1.81209e-05
1.80358e-05
1.80462e-05
1.79703e-05
1.79733e-05
1.79096e-05
1.79016e-05
1.78539e-05
1.78308e-05
1.77785e-05
2.13948e-05
2.11011e-05
2.08614e-05
2.06358e-05
2.04589e-05
2.02769e-05
2.01407e-05
1.99853e-05
1.98777e-05
1.97391e-05
1.9654e-05
1.95269e-05
1.94598e-05
1.93407e-05
1.92887e-05
1.91748e-05
1.91356e-05
1.90252e-05
1.89972e-05
1.88891e-05
1.88711e-05
1.87641e-05
1.87548e-05
1.86487e-05
1.8647e-05
1.85413e-05
1.85463e-05
1.84416e-05
1.84521e-05
1.8349e-05
1.83633e-05
1.82625e-05
1.8279e-05
1.81818e-05
1.81985e-05
1.81064e-05
1.81212e-05
1.80361e-05
1.80465e-05
1.79706e-05
1.79735e-05
1.79099e-05
1.79019e-05
1.78542e-05
1.7831e-05
1.77787e-05
2.13948e-05
2.11005e-05
2.08609e-05
2.06346e-05
2.0458e-05
2.02756e-05
2.01401e-05
1.99844e-05
1.98776e-05
1.97391e-05
1.9654e-05
1.9527e-05
1.94598e-05
1.93404e-05
1.92882e-05
1.91744e-05
1.91351e-05
1.90247e-05
1.89967e-05
1.88886e-05
1.88705e-05
1.87636e-05
1.87544e-05
1.86483e-05
1.86468e-05
1.85414e-05
1.85464e-05
1.84416e-05
1.84518e-05
1.8349e-05
1.83631e-05
1.82625e-05
1.82789e-05
1.81817e-05
1.81986e-05
1.81065e-05
1.81214e-05
1.80361e-05
1.80465e-05
1.79706e-05
1.79736e-05
1.79099e-05
1.79019e-05
1.78542e-05
1.78311e-05
1.77788e-05
2.13883e-05
2.11088e-05
2.08511e-05
2.06459e-05
2.04445e-05
2.02898e-05
2.01225e-05
2.00029e-05
1.98557e-05
1.97631e-05
1.96271e-05
1.95952e-05
1.95015e-05
1.94109e-05
1.93237e-05
1.92407e-05
1.91623e-05
1.90884e-05
1.90187e-05
1.89531e-05
1.889e-05
1.88318e-05
1.87772e-05
1.87257e-05
1.86768e-05
1.86299e-05
1.85711e-05
1.84667e-05
1.84767e-05
1.8374e-05
1.83878e-05
1.82873e-05
1.83034e-05
1.82062e-05
1.82227e-05
1.81306e-05
1.81454e-05
1.80601e-05
1.80706e-05
1.79946e-05
1.79976e-05
1.79339e-05
1.79259e-05
1.78781e-05
1.78549e-05
1.78025e-05
2.13878e-05
2.11094e-05
2.08507e-05
2.06462e-05
2.04445e-05
2.02892e-05
2.01231e-05
2.00003e-05
1.98587e-05
1.97572e-05
1.96672e-05
1.95704e-05
1.94789e-05
1.93915e-05
1.93074e-05
1.9227e-05
1.91495e-05
1.90759e-05
1.90066e-05
1.89413e-05
1.88802e-05
1.88217e-05
1.8765e-05
1.87089e-05
1.86527e-05
1.85963e-05
1.85402e-05
1.84708e-05
1.84809e-05
1.83781e-05
1.83922e-05
1.82916e-05
1.8308e-05
1.82107e-05
1.82275e-05
1.81352e-05
1.81501e-05
1.80647e-05
1.80752e-05
1.79992e-05
1.80023e-05
1.79387e-05
1.79308e-05
1.78831e-05
1.786e-05
1.78077e-05
2.13879e-05
2.11098e-05
2.08511e-05
2.06469e-05
2.04451e-05
2.02897e-05
2.01231e-05
2.00006e-05
1.98585e-05
1.97574e-05
1.96684e-05
1.95701e-05
1.94769e-05
1.93888e-05
1.93051e-05
1.92256e-05
1.91482e-05
1.90732e-05
1.90011e-05
1.89318e-05
1.88648e-05
1.88013e-05
1.87414e-05
1.86859e-05
1.8635e-05
1.85879e-05
1.85432e-05
1.84712e-05
1.84813e-05
1.83784e-05
1.83923e-05
1.82917e-05
1.83079e-05
1.82106e-05
1.82272e-05
1.81349e-05
1.81497e-05
1.80643e-05
1.80748e-05
1.79988e-05
1.80019e-05
1.79383e-05
1.79304e-05
1.78828e-05
1.78598e-05
1.78075e-05
2.13879e-05
2.11103e-05
2.08515e-05
2.06476e-05
2.0445e-05
2.02902e-05
2.01226e-05
2.00012e-05
1.98579e-05
1.97581e-05
1.96348e-05
1.95366e-05
1.94456e-05
1.93607e-05
1.92811e-05
1.92066e-05
1.91363e-05
1.90695e-05
1.90053e-05
1.89431e-05
1.88816e-05
1.88213e-05
1.8762e-05
1.87038e-05
1.8647e-05
1.85926e-05
1.85411e-05
1.84705e-05
1.84806e-05
1.83777e-05
1.83917e-05
1.82911e-05
1.83074e-05
1.82102e-05
1.82269e-05
1.81348e-05
1.81497e-05
1.80645e-05
1.8075e-05
1.79991e-05
1.80021e-05
1.79386e-05
1.79306e-05
1.7883e-05
1.78599e-05
1.78077e-05
2.1388e-05
2.11103e-05
2.08516e-05
2.06475e-05
2.04451e-05
2.02901e-05
2.01228e-05
2.00011e-05
1.98581e-05
1.97579e-05
1.96499e-05
1.9552e-05
1.94604e-05
1.93739e-05
1.92915e-05
1.92128e-05
1.91376e-05
1.90659e-05
1.89978e-05
1.89327e-05
1.887e-05
1.88083e-05
1.8748e-05
1.86901e-05
1.86349e-05
1.8583e-05
1.85343e-05
1.84715e-05
1.84818e-05
1.83791e-05
1.83932e-05
1.82926e-05
1.83089e-05
1.82115e-05
1.82281e-05
1.81357e-05
1.81504e-05
1.80648e-05
1.80752e-05
1.79991e-05
1.8002e-05
1.79384e-05
1.79304e-05
1.78828e-05
1.78598e-05
1.78075e-05
2.13879e-05
2.11098e-05
2.0851e-05
2.06471e-05
2.04448e-05
2.029e-05
2.01227e-05
2.00009e-05
1.9858e-05
1.97578e-05
1.96663e-05
1.95658e-05
1.947e-05
1.93795e-05
1.9295e-05
1.92166e-05
1.91455e-05
1.908e-05
1.90189e-05
1.89601e-05
1.89018e-05
1.8843e-05
1.87834e-05
1.87232e-05
1.86617e-05
1.86017e-05
1.85431e-05
1.84702e-05
1.84804e-05
1.83776e-05
1.83916e-05
1.8291e-05
1.83073e-05
1.82101e-05
1.82268e-05
1.81347e-05
1.81496e-05
1.80644e-05
1.8075e-05
1.79991e-05
1.80023e-05
1.79387e-05
1.79308e-05
1.78831e-05
1.786e-05
1.78077e-05
2.13878e-05
2.11095e-05
2.08506e-05
2.06464e-05
2.04442e-05
2.02894e-05
2.01228e-05
2.00007e-05
1.98583e-05
1.97576e-05
1.96353e-05
1.95373e-05
1.94462e-05
1.93608e-05
1.928e-05
1.92028e-05
1.91276e-05
1.90539e-05
1.8982e-05
1.89125e-05
1.88461e-05
1.87839e-05
1.87261e-05
1.86728e-05
1.86245e-05
1.85784e-05
1.85347e-05
1.84711e-05
1.84813e-05
1.83785e-05
1.83926e-05
1.82921e-05
1.83084e-05
1.82112e-05
1.82278e-05
1.81356e-05
1.81503e-05
1.8065e-05
1.80753e-05
1.79994e-05
1.80023e-05
1.79387e-05
1.79307e-05
1.78829e-05
1.78598e-05
1.78074e-05
2.13884e-05
2.11088e-05
2.08513e-05
2.06458e-05
2.04445e-05
2.02896e-05
2.01226e-05
2.00028e-05
1.98557e-05
1.9763e-05
1.96271e-05
1.95839e-05
1.94876e-05
1.93922e-05
1.92997e-05
1.92132e-05
1.91335e-05
1.90618e-05
1.89985e-05
1.89427e-05
1.88902e-05
1.88402e-05
1.87895e-05
1.87364e-05
1.86802e-05
1.8622e-05
1.85704e-05
1.84662e-05
1.84763e-05
1.83737e-05
1.83877e-05
1.82874e-05
1.83036e-05
1.82066e-05
1.82232e-05
1.81311e-05
1.81459e-05
1.80605e-05
1.8071e-05
1.79949e-05
1.79979e-05
1.79342e-05
1.79262e-05
1.78783e-05
1.7855e-05
1.78025e-05
2.13948e-05
2.11007e-05
2.08609e-05
2.06346e-05
2.04579e-05
2.02755e-05
2.014e-05
1.99844e-05
1.98775e-05
1.97391e-05
1.9654e-05
1.9527e-05
1.94597e-05
1.93403e-05
1.92881e-05
1.91743e-05
1.9135e-05
1.90246e-05
1.89966e-05
1.88885e-05
1.88704e-05
1.87635e-05
1.87543e-05
1.86483e-05
1.86468e-05
1.85414e-05
1.85464e-05
1.84416e-05
1.84518e-05
1.8349e-05
1.83631e-05
1.82625e-05
1.82789e-05
1.81817e-05
1.81985e-05
1.81065e-05
1.81213e-05
1.80361e-05
1.80465e-05
1.79705e-05
1.79735e-05
1.79098e-05
1.79018e-05
1.78541e-05
1.7831e-05
1.77787e-05
2.1395e-05
2.11016e-05
2.08616e-05
2.06356e-05
2.04587e-05
2.02767e-05
2.01404e-05
1.9985e-05
1.98775e-05
1.97389e-05
1.96537e-05
1.95267e-05
1.94596e-05
1.93405e-05
1.92884e-05
1.91746e-05
1.91354e-05
1.9025e-05
1.8997e-05
1.88888e-05
1.88708e-05
1.87639e-05
1.87546e-05
1.86484e-05
1.86468e-05
1.8541e-05
1.85461e-05
1.84413e-05
1.84519e-05
1.83487e-05
1.83631e-05
1.82622e-05
1.82788e-05
1.81815e-05
1.81983e-05
1.81061e-05
1.8121e-05
1.80359e-05
1.80463e-05
1.79703e-05
1.79733e-05
1.79096e-05
1.79016e-05
1.78539e-05
1.78308e-05
1.77784e-05
2.13956e-05
2.11027e-05
2.08628e-05
2.0636e-05
2.04596e-05
2.02765e-05
2.01408e-05
1.99843e-05
1.98774e-05
1.97383e-05
1.96535e-05
1.95261e-05
1.94593e-05
1.93401e-05
1.92882e-05
1.91741e-05
1.91351e-05
1.90244e-05
1.89967e-05
1.88883e-05
1.88705e-05
1.87634e-05
1.87543e-05
1.86478e-05
1.86463e-05
1.85404e-05
1.85456e-05
1.84409e-05
1.84515e-05
1.83483e-05
1.83627e-05
1.82619e-05
1.82785e-05
1.81812e-05
1.8198e-05
1.81059e-05
1.81207e-05
1.80356e-05
1.8046e-05
1.79701e-05
1.7973e-05
1.79094e-05
1.79014e-05
1.78537e-05
1.78306e-05
1.77782e-05
2.13958e-05
2.11028e-05
2.08627e-05
2.06352e-05
2.0459e-05
2.02756e-05
2.01403e-05
1.99835e-05
1.98772e-05
1.97379e-05
1.96535e-05
1.95263e-05
1.94597e-05
1.93404e-05
1.92886e-05
1.91744e-05
1.91354e-05
1.90247e-05
1.8997e-05
1.88886e-05
1.88708e-05
1.87637e-05
1.87547e-05
1.86478e-05
1.86466e-05
1.854e-05
1.85458e-05
1.84405e-05
1.84517e-05
1.83482e-05
1.8363e-05
1.82618e-05
1.82787e-05
1.81812e-05
1.81983e-05
1.81059e-05
1.81209e-05
1.80357e-05
1.80461e-05
1.79703e-05
1.79733e-05
1.79096e-05
1.79016e-05
1.78539e-05
1.78308e-05
1.77785e-05
2.13954e-05
2.11019e-05
2.08622e-05
2.06355e-05
2.04593e-05
2.02762e-05
2.01406e-05
1.99841e-05
1.98773e-05
1.9738e-05
1.96535e-05
1.95262e-05
1.94593e-05
1.93398e-05
1.92881e-05
1.91741e-05
1.9135e-05
1.90245e-05
1.89966e-05
1.88883e-05
1.88703e-05
1.87634e-05
1.87542e-05
1.86479e-05
1.86463e-05
1.85405e-05
1.85455e-05
1.8441e-05
1.84513e-05
1.83484e-05
1.83625e-05
1.8262e-05
1.82783e-05
1.81813e-05
1.81979e-05
1.81059e-05
1.81207e-05
1.80356e-05
1.8046e-05
1.79701e-05
1.7973e-05
1.79094e-05
1.79014e-05
1.78537e-05
1.78306e-05
1.77783e-05
2.13955e-05
2.11025e-05
2.0863e-05
2.06366e-05
2.04602e-05
2.02771e-05
2.01412e-05
1.99845e-05
1.98776e-05
1.97378e-05
1.96535e-05
1.95256e-05
1.94592e-05
1.93396e-05
1.92881e-05
1.91734e-05
1.91346e-05
1.90235e-05
1.8996e-05
1.88874e-05
1.88698e-05
1.87625e-05
1.87535e-05
1.86471e-05
1.86453e-05
1.85401e-05
1.85446e-05
1.84407e-05
1.84504e-05
1.8348e-05
1.83616e-05
1.82616e-05
1.82774e-05
1.81808e-05
1.81971e-05
1.81054e-05
1.812e-05
1.80349e-05
1.80453e-05
1.79693e-05
1.79723e-05
1.79087e-05
1.79007e-05
1.7853e-05
1.78299e-05
1.77777e-05
2.13946e-05
2.1102e-05
2.08619e-05
2.0637e-05
2.04593e-05
2.0278e-05
2.01408e-05
1.99862e-05
1.98776e-05
1.97391e-05
1.96532e-05
1.95269e-05
1.94592e-05
1.93408e-05
1.92878e-05
1.91741e-05
1.91341e-05
1.90241e-05
1.89955e-05
1.88879e-05
1.88693e-05
1.8763e-05
1.87533e-05
1.86475e-05
1.86456e-05
1.85406e-05
1.85451e-05
1.84411e-05
1.84508e-05
1.83486e-05
1.83622e-05
1.82622e-05
1.8278e-05
1.81815e-05
1.8198e-05
1.81061e-05
1.81209e-05
1.80358e-05
1.80462e-05
1.79704e-05
1.79733e-05
1.79098e-05
1.79018e-05
1.78541e-05
1.78311e-05
1.77789e-05
2.13883e-05
2.11088e-05
2.08517e-05
2.06465e-05
2.0445e-05
2.02916e-05
2.01226e-05
2.00059e-05
1.98537e-05
1.97821e-05
1.96778e-05
1.95799e-05
1.94873e-05
1.9399e-05
1.93153e-05
1.92359e-05
1.91611e-05
1.90904e-05
1.90238e-05
1.89601e-05
1.8899e-05
1.88386e-05
1.87796e-05
1.8723e-05
1.86694e-05
1.86187e-05
1.85714e-05
1.8527e-05
1.84861e-05
1.83838e-05
1.83974e-05
1.82972e-05
1.83132e-05
1.82163e-05
1.82329e-05
1.81408e-05
1.81556e-05
1.80703e-05
1.80807e-05
1.80049e-05
1.80079e-05
1.79444e-05
1.79364e-05
1.78887e-05
1.78656e-05
1.78133e-05
2.13928e-05
2.1102e-05
2.08584e-05
2.06361e-05
2.04554e-05
2.02756e-05
2.01393e-05
1.99813e-05
1.98766e-05
1.97631e-05
1.96557e-05
1.95549e-05
1.9461e-05
1.9374e-05
1.92932e-05
1.92177e-05
1.91467e-05
1.90788e-05
1.90136e-05
1.89514e-05
1.88919e-05
1.88365e-05
1.87839e-05
1.87339e-05
1.86857e-05
1.86382e-05
1.85909e-05
1.8543e-05
1.84953e-05
1.8448e-05
1.84018e-05
1.83572e-05
1.8314e-05
1.82718e-05
1.8241e-05
1.81488e-05
1.81634e-05
1.80781e-05
1.80882e-05
1.80122e-05
1.8015e-05
1.79513e-05
1.79431e-05
1.78953e-05
1.78721e-05
1.78198e-05
2.13929e-05
2.1102e-05
2.08581e-05
2.06372e-05
2.04529e-05
2.02801e-05
2.01309e-05
2.00258e-05
1.9906e-05
1.97937e-05
1.96881e-05
1.95886e-05
1.94953e-05
1.94078e-05
1.93255e-05
1.92475e-05
1.91734e-05
1.91024e-05
1.90342e-05
1.89684e-05
1.89054e-05
1.8845e-05
1.8787e-05
1.8731e-05
1.86772e-05
1.86251e-05
1.85741e-05
1.85239e-05
1.84742e-05
1.8425e-05
1.8377e-05
1.83307e-05
1.82869e-05
1.82459e-05
1.82074e-05
1.81548e-05
1.81696e-05
1.80843e-05
1.80946e-05
1.80187e-05
1.80216e-05
1.7958e-05
1.795e-05
1.79024e-05
1.78793e-05
1.78271e-05
2.13944e-05
2.11006e-05
2.08599e-05
2.06365e-05
2.04544e-05
2.02795e-05
2.01315e-05
2.00163e-05
1.98949e-05
1.97816e-05
1.96755e-05
1.95763e-05
1.94839e-05
1.93976e-05
1.93167e-05
1.92394e-05
1.91649e-05
1.90921e-05
1.90217e-05
1.89534e-05
1.88881e-05
1.88242e-05
1.87625e-05
1.87034e-05
1.86475e-05
1.85949e-05
1.85455e-05
1.84985e-05
1.84534e-05
1.84097e-05
1.83672e-05
1.83258e-05
1.82857e-05
1.82469e-05
1.82095e-05
1.81557e-05
1.81705e-05
1.80854e-05
1.80957e-05
1.80198e-05
1.80225e-05
1.79586e-05
1.79504e-05
1.79023e-05
1.7879e-05
1.78266e-05
2.13932e-05
2.11019e-05
2.08602e-05
2.06371e-05
2.0456e-05
2.02783e-05
2.01338e-05
1.99971e-05
1.98742e-05
1.97586e-05
1.96501e-05
1.95492e-05
1.94553e-05
1.93672e-05
1.92841e-05
1.9206e-05
1.91317e-05
1.90601e-05
1.89924e-05
1.89271e-05
1.88646e-05
1.88055e-05
1.87496e-05
1.86962e-05
1.86456e-05
1.8596e-05
1.85478e-05
1.85005e-05
1.84541e-05
1.84087e-05
1.83647e-05
1.83227e-05
1.82829e-05
1.8245e-05
1.82091e-05
1.81557e-05
1.81703e-05
1.80852e-05
1.80953e-05
1.80194e-05
1.80221e-05
1.79583e-05
1.79501e-05
1.79022e-05
1.78791e-05
1.78269e-05
2.13941e-05
2.1101e-05
2.08607e-05
2.06368e-05
2.04556e-05
2.02789e-05
2.01327e-05
2.00243e-05
1.99044e-05
1.97907e-05
1.96824e-05
1.95797e-05
1.94832e-05
1.93937e-05
1.93111e-05
1.92343e-05
1.91617e-05
1.90913e-05
1.90239e-05
1.89585e-05
1.88948e-05
1.88331e-05
1.87743e-05
1.87186e-05
1.86665e-05
1.86171e-05
1.85694e-05
1.85225e-05
1.84761e-05
1.84297e-05
1.83836e-05
1.83382e-05
1.82941e-05
1.82516e-05
1.82111e-05
1.81553e-05
1.81701e-05
1.8085e-05
1.80953e-05
1.80194e-05
1.80222e-05
1.79584e-05
1.79502e-05
1.79022e-05
1.7879e-05
1.78267e-05
2.13937e-05
2.11013e-05
2.08596e-05
2.06368e-05
2.04547e-05
2.02792e-05
2.01323e-05
2.00192e-05
1.98986e-05
1.97849e-05
1.96775e-05
1.95769e-05
1.94829e-05
1.93948e-05
1.9312e-05
1.92343e-05
1.9159e-05
1.90855e-05
1.90149e-05
1.89457e-05
1.88785e-05
1.88122e-05
1.87488e-05
1.86895e-05
1.86338e-05
1.85822e-05
1.85335e-05
1.84865e-05
1.84409e-05
1.83963e-05
1.83529e-05
1.83114e-05
1.82724e-05
1.82363e-05
1.82034e-05
1.81557e-05
1.81705e-05
1.80853e-05
1.80954e-05
1.80194e-05
1.80222e-05
1.79584e-05
1.79503e-05
1.79024e-05
1.78793e-05
1.7827e-05
2.13947e-05
2.11e-05
2.08604e-05
2.06347e-05
2.04552e-05
2.02776e-05
2.0133e-05
2.00133e-05
1.98923e-05
1.97802e-05
1.96765e-05
1.95808e-05
1.94919e-05
1.94083e-05
1.93288e-05
1.9252e-05
1.91775e-05
1.91052e-05
1.90351e-05
1.89667e-05
1.89011e-05
1.8837e-05
1.87757e-05
1.8718e-05
1.8663e-05
1.86117e-05
1.85627e-05
1.85151e-05
1.84683e-05
1.84219e-05
1.83762e-05
1.83313e-05
1.82879e-05
1.82462e-05
1.82064e-05
1.81547e-05
1.81691e-05
1.80838e-05
1.80938e-05
1.80178e-05
1.80203e-05
1.79565e-05
1.79482e-05
1.79003e-05
1.78771e-05
1.78248e-05
2.13938e-05
2.11014e-05
2.086e-05
2.06348e-05
2.04566e-05
2.02741e-05
2.01402e-05
1.99803e-05
1.9882e-05
1.97697e-05
1.96649e-05
1.95669e-05
1.94751e-05
1.93889e-05
1.93075e-05
1.92305e-05
1.91581e-05
1.90891e-05
1.90231e-05
1.89595e-05
1.88979e-05
1.88389e-05
1.87819e-05
1.87266e-05
1.86739e-05
1.86235e-05
1.85754e-05
1.85296e-05
1.84853e-05
1.84418e-05
1.83987e-05
1.83557e-05
1.83134e-05
1.8272e-05
1.82409e-05
1.81487e-05
1.81635e-05
1.80782e-05
1.80885e-05
1.80126e-05
1.80155e-05
1.7952e-05
1.7944e-05
1.78964e-05
1.78733e-05
1.78211e-05
2.13887e-05
2.11093e-05
2.08522e-05
2.06463e-05
2.0445e-05
2.02911e-05
2.01226e-05
2.00053e-05
1.98537e-05
1.97754e-05
1.96704e-05
1.95715e-05
1.94777e-05
1.93877e-05
1.93015e-05
1.922e-05
1.91427e-05
1.90697e-05
1.90019e-05
1.89393e-05
1.88819e-05
1.88282e-05
1.87773e-05
1.87278e-05
1.86778e-05
1.86265e-05
1.85739e-05
1.85208e-05
1.8486e-05
1.83837e-05
1.83974e-05
1.82973e-05
1.83133e-05
1.82165e-05
1.82331e-05
1.8141e-05
1.81558e-05
1.80706e-05
1.8081e-05
1.80052e-05
1.80081e-05
1.79446e-05
1.79366e-05
1.78889e-05
1.78658e-05
1.78136e-05
2.13948e-05
2.11028e-05
2.08621e-05
2.06368e-05
2.04588e-05
2.02776e-05
2.01402e-05
1.99858e-05
1.98769e-05
1.97388e-05
1.96525e-05
1.95267e-05
1.94584e-05
1.93407e-05
1.9287e-05
1.91745e-05
1.91335e-05
1.90237e-05
1.89948e-05
1.88876e-05
1.88687e-05
1.87624e-05
1.87527e-05
1.86468e-05
1.86449e-05
1.854e-05
1.85445e-05
1.84406e-05
1.84501e-05
1.83481e-05
1.83617e-05
1.82617e-05
1.82776e-05
1.8181e-05
1.81976e-05
1.81056e-05
1.81205e-05
1.80353e-05
1.80457e-05
1.79699e-05
1.79728e-05
1.79093e-05
1.79013e-05
1.78536e-05
1.78305e-05
1.77783e-05
2.13955e-05
2.11026e-05
2.08632e-05
2.06366e-05
2.04603e-05
2.0277e-05
2.01411e-05
1.99842e-05
1.98775e-05
1.97379e-05
1.96535e-05
1.95258e-05
1.94594e-05
1.93398e-05
1.92881e-05
1.91735e-05
1.91346e-05
1.90236e-05
1.8996e-05
1.88874e-05
1.88698e-05
1.87625e-05
1.87535e-05
1.8647e-05
1.86453e-05
1.85401e-05
1.85447e-05
1.84406e-05
1.84504e-05
1.83482e-05
1.83619e-05
1.82617e-05
1.82776e-05
1.81809e-05
1.81973e-05
1.81054e-05
1.81201e-05
1.8035e-05
1.80453e-05
1.79694e-05
1.79724e-05
1.79088e-05
1.79008e-05
1.78531e-05
1.78299e-05
1.77777e-05
2.13953e-05
2.11018e-05
2.08623e-05
2.06359e-05
2.04596e-05
2.02766e-05
2.01409e-05
1.99844e-05
1.98776e-05
1.97384e-05
1.9654e-05
1.95265e-05
1.94601e-05
1.93406e-05
1.92886e-05
1.91746e-05
1.91354e-05
1.90249e-05
1.8997e-05
1.88888e-05
1.88708e-05
1.87639e-05
1.87546e-05
1.86478e-05
1.86465e-05
1.85408e-05
1.85458e-05
1.84413e-05
1.84516e-05
1.8349e-05
1.83631e-05
1.82625e-05
1.82788e-05
1.81817e-05
1.81984e-05
1.81064e-05
1.81212e-05
1.8036e-05
1.80464e-05
1.79705e-05
1.79734e-05
1.79098e-05
1.79018e-05
1.78541e-05
1.7831e-05
1.77787e-05
2.1395e-05
2.11014e-05
2.08614e-05
2.06355e-05
2.04586e-05
2.02766e-05
2.01404e-05
1.99849e-05
1.98775e-05
1.9739e-05
1.96538e-05
1.95266e-05
1.94595e-05
1.93404e-05
1.92883e-05
1.91745e-05
1.91353e-05
1.9025e-05
1.89969e-05
1.88889e-05
1.88707e-05
1.87639e-05
1.87545e-05
1.86484e-05
1.86467e-05
1.8541e-05
1.85459e-05
1.84413e-05
1.84517e-05
1.83487e-05
1.83629e-05
1.82623e-05
1.82787e-05
1.81815e-05
1.81982e-05
1.81062e-05
1.81209e-05
1.80359e-05
1.80463e-05
1.79703e-05
1.79733e-05
1.79096e-05
1.79016e-05
1.78539e-05
1.78308e-05
1.77784e-05
2.1395e-05
2.11025e-05
2.08624e-05
2.06364e-05
2.04592e-05
2.02773e-05
2.01408e-05
1.99852e-05
1.98775e-05
1.97384e-05
1.96532e-05
1.95261e-05
1.94592e-05
1.93399e-05
1.92877e-05
1.91739e-05
1.91341e-05
1.90238e-05
1.89954e-05
1.88877e-05
1.88693e-05
1.87627e-05
1.87532e-05
1.8647e-05
1.86453e-05
1.85402e-05
1.85448e-05
1.8441e-05
1.84504e-05
1.83482e-05
1.83617e-05
1.82617e-05
1.82776e-05
1.8181e-05
1.81975e-05
1.81056e-05
1.81204e-05
1.80353e-05
1.80457e-05
1.79698e-05
1.79728e-05
1.79092e-05
1.79012e-05
1.78535e-05
1.78304e-05
1.77782e-05
2.13876e-05
2.11113e-05
2.08529e-05
2.06506e-05
2.04465e-05
2.02956e-05
2.01235e-05
2.00087e-05
1.98545e-05
1.97823e-05
1.96781e-05
1.95808e-05
1.94893e-05
1.94029e-05
1.93214e-05
1.92444e-05
1.91722e-05
1.9105e-05
1.90426e-05
1.89838e-05
1.89266e-05
1.88713e-05
1.8817e-05
1.8761e-05
1.87066e-05
1.86518e-05
1.85959e-05
1.85393e-05
1.84862e-05
1.8384e-05
1.83974e-05
1.82973e-05
1.83131e-05
1.82163e-05
1.82328e-05
1.81408e-05
1.81557e-05
1.80706e-05
1.80812e-05
1.80055e-05
1.80086e-05
1.79452e-05
1.79373e-05
1.78897e-05
1.78666e-05
1.78145e-05
2.13924e-05
2.1102e-05
2.08613e-05
2.06374e-05
2.04619e-05
2.02742e-05
2.01631e-05
2.00337e-05
1.99133e-05
1.98001e-05
1.96934e-05
1.95934e-05
1.94996e-05
1.94111e-05
1.93284e-05
1.92501e-05
1.91766e-05
1.91069e-05
1.90408e-05
1.8978e-05
1.8918e-05
1.88608e-05
1.88055e-05
1.87517e-05
1.86995e-05
1.86485e-05
1.85991e-05
1.85509e-05
1.85039e-05
1.84582e-05
1.84136e-05
1.83702e-05
1.8328e-05
1.82869e-05
1.82469e-05
1.82077e-05
1.8181e-05
1.80959e-05
1.81062e-05
1.80305e-05
1.80334e-05
1.79701e-05
1.7962e-05
1.79144e-05
1.78913e-05
1.78392e-05
2.13923e-05
2.11009e-05
2.08603e-05
2.06361e-05
2.04611e-05
2.02727e-05
2.01524e-05
2.00228e-05
1.9904e-05
1.9794e-05
1.96913e-05
1.95944e-05
1.95029e-05
1.9416e-05
1.9333e-05
1.92539e-05
1.91791e-05
1.91081e-05
1.90413e-05
1.89778e-05
1.89163e-05
1.8857e-05
1.88001e-05
1.87459e-05
1.86938e-05
1.86437e-05
1.85956e-05
1.85491e-05
1.85038e-05
1.84595e-05
1.84159e-05
1.83731e-05
1.83311e-05
1.82903e-05
1.82511e-05
1.82136e-05
1.81816e-05
1.80965e-05
1.81068e-05
1.80309e-05
1.80337e-05
1.79701e-05
1.7962e-05
1.79141e-05
1.7891e-05
1.78388e-05
2.13923e-05
2.11004e-05
2.08602e-05
2.06356e-05
2.04606e-05
2.02722e-05
2.01419e-05
2.00111e-05
1.98915e-05
1.97816e-05
1.96801e-05
1.95858e-05
1.94976e-05
1.94145e-05
1.93354e-05
1.92595e-05
1.91873e-05
1.91173e-05
1.90493e-05
1.89827e-05
1.89182e-05
1.8856e-05
1.87965e-05
1.87406e-05
1.86887e-05
1.86406e-05
1.85954e-05
1.85521e-05
1.85094e-05
1.84666e-05
1.84238e-05
1.83813e-05
1.83394e-05
1.82985e-05
1.82593e-05
1.82222e-05
1.81804e-05
1.80954e-05
1.81058e-05
1.80301e-05
1.8033e-05
1.79693e-05
1.79612e-05
1.79132e-05
1.789e-05
1.78376e-05
2.13914e-05
2.11017e-05
2.08589e-05
2.06376e-05
2.04593e-05
2.02739e-05
2.01699e-05
2.00405e-05
1.99207e-05
1.98088e-05
1.9703e-05
1.96026e-05
1.95072e-05
1.94169e-05
1.93319e-05
1.92523e-05
1.91767e-05
1.9105e-05
1.90375e-05
1.89739e-05
1.8913e-05
1.88561e-05
1.88021e-05
1.875e-05
1.86991e-05
1.8649e-05
1.85992e-05
1.85501e-05
1.85019e-05
1.84549e-05
1.84094e-05
1.83657e-05
1.83241e-05
1.82847e-05
1.82471e-05
1.82108e-05
1.81801e-05
1.80949e-05
1.81052e-05
1.80294e-05
1.80323e-05
1.79688e-05
1.79607e-05
1.79131e-05
1.789e-05
1.78379e-05
2.13904e-05
2.11029e-05
2.08576e-05
2.064e-05
2.04574e-05
2.02765e-05
2.01279e-05
1.99995e-05
1.98825e-05
1.97751e-05
1.96755e-05
1.95823e-05
1.94958e-05
1.94149e-05
1.93381e-05
1.92639e-05
1.91911e-05
1.91184e-05
1.90473e-05
1.89791e-05
1.89138e-05
1.88525e-05
1.87956e-05
1.8743e-05
1.86935e-05
1.86478e-05
1.86042e-05
1.85611e-05
1.8518e-05
1.84746e-05
1.84315e-05
1.83893e-05
1.83479e-05
1.83069e-05
1.82656e-05
1.82242e-05
1.8181e-05
1.80958e-05
1.81061e-05
1.80302e-05
1.8033e-05
1.79692e-05
1.79611e-05
1.79131e-05
1.78899e-05
1.78377e-05
2.13901e-05
2.11031e-05
2.08578e-05
2.06396e-05
2.04581e-05
2.02756e-05
2.01693e-05
2.00403e-05
1.99211e-05
1.98099e-05
1.97049e-05
1.96047e-05
1.95089e-05
1.94177e-05
1.93313e-05
1.92505e-05
1.91741e-05
1.91013e-05
1.90337e-05
1.89709e-05
1.89116e-05
1.8854e-05
1.87979e-05
1.87434e-05
1.86902e-05
1.86394e-05
1.85903e-05
1.85425e-05
1.84958e-05
1.84499e-05
1.84047e-05
1.83609e-05
1.8319e-05
1.82793e-05
1.82416e-05
1.82053e-05
1.81804e-05
1.80952e-05
1.81053e-05
1.80294e-05
1.8032e-05
1.79682e-05
1.796e-05
1.7912e-05
1.78889e-05
1.78367e-05
2.13916e-05
2.11015e-05
2.08587e-05
2.06384e-05
2.04576e-05
2.02765e-05
2.01392e-05
2.00106e-05
1.9893e-05
1.97846e-05
1.96837e-05
1.95885e-05
1.94982e-05
1.94123e-05
1.93302e-05
1.9252e-05
1.91771e-05
1.91061e-05
1.90397e-05
1.89776e-05
1.89185e-05
1.88624e-05
1.88085e-05
1.87566e-05
1.87059e-05
1.86563e-05
1.8607e-05
1.85582e-05
1.85098e-05
1.84621e-05
1.84157e-05
1.83711e-05
1.83285e-05
1.82876e-05
1.82482e-05
1.82099e-05
1.81808e-05
1.80955e-05
1.81058e-05
1.80298e-05
1.80326e-05
1.79689e-05
1.79608e-05
1.79129e-05
1.78897e-05
1.78374e-05
2.13924e-05
2.11006e-05
2.08603e-05
2.06358e-05
2.04601e-05
2.02726e-05
2.01315e-05
2.00023e-05
1.98843e-05
1.97753e-05
1.96739e-05
1.95792e-05
1.94904e-05
1.94064e-05
1.93267e-05
1.92506e-05
1.91772e-05
1.91064e-05
1.90388e-05
1.89748e-05
1.89152e-05
1.88586e-05
1.88046e-05
1.87526e-05
1.87021e-05
1.86521e-05
1.86026e-05
1.85539e-05
1.85062e-05
1.84597e-05
1.84146e-05
1.83712e-05
1.83294e-05
1.82888e-05
1.82486e-05
1.82088e-05
1.81798e-05
1.80947e-05
1.81051e-05
1.80295e-05
1.80325e-05
1.79691e-05
1.79612e-05
1.79135e-05
1.78904e-05
1.78383e-05
2.13903e-05
2.11041e-05
2.08585e-05
2.0639e-05
2.04586e-05
2.0275e-05
2.0174e-05
2.00441e-05
1.99226e-05
1.98082e-05
1.97004e-05
1.95987e-05
1.95032e-05
1.94136e-05
1.93296e-05
1.92507e-05
1.91766e-05
1.9106e-05
1.90391e-05
1.89754e-05
1.89144e-05
1.88563e-05
1.8801e-05
1.87485e-05
1.86986e-05
1.86504e-05
1.86033e-05
1.85565e-05
1.85098e-05
1.84634e-05
1.84175e-05
1.83724e-05
1.83285e-05
1.8286e-05
1.82452e-05
1.82064e-05
1.81812e-05
1.80961e-05
1.81064e-05
1.80304e-05
1.80332e-05
1.79695e-05
1.79614e-05
1.79133e-05
1.789e-05
1.78376e-05
2.13917e-05
2.11038e-05
2.086e-05
2.06392e-05
2.04594e-05
2.02765e-05
2.0166e-05
2.00353e-05
1.99152e-05
1.98046e-05
1.97025e-05
1.96073e-05
1.95181e-05
1.94333e-05
1.93534e-05
1.92768e-05
1.92039e-05
1.91339e-05
1.90664e-05
1.90009e-05
1.89369e-05
1.88735e-05
1.8811e-05
1.87518e-05
1.86945e-05
1.86397e-05
1.85873e-05
1.85376e-05
1.84909e-05
1.8447e-05
1.84055e-05
1.83659e-05
1.83277e-05
1.82905e-05
1.82541e-05
1.82181e-05
1.81815e-05
1.80963e-05
1.81067e-05
1.80309e-05
1.80338e-05
1.79702e-05
1.79622e-05
1.79144e-05
1.78912e-05
1.78388e-05
2.13885e-05
2.111e-05
2.08543e-05
2.0649e-05
2.04482e-05
2.02938e-05
2.01247e-05
2.00071e-05
1.98559e-05
1.9769e-05
1.96644e-05
1.95676e-05
1.94775e-05
1.93931e-05
1.93129e-05
1.92352e-05
1.91612e-05
1.90915e-05
1.90239e-05
1.89588e-05
1.88958e-05
1.88334e-05
1.87721e-05
1.87136e-05
1.8659e-05
1.86092e-05
1.85646e-05
1.85242e-05
1.84869e-05
1.83849e-05
1.83985e-05
1.82983e-05
1.83143e-05
1.82174e-05
1.8234e-05
1.81418e-05
1.81567e-05
1.80714e-05
1.80817e-05
1.80058e-05
1.80087e-05
1.7945e-05
1.79369e-05
1.78891e-05
1.78659e-05
1.78137e-05
2.13949e-05
2.11015e-05
2.08625e-05
2.06363e-05
2.04599e-05
2.02771e-05
2.01412e-05
1.9985e-05
1.98781e-05
1.97388e-05
1.9654e-05
1.95266e-05
1.94601e-05
1.93404e-05
1.92884e-05
1.91736e-05
1.91346e-05
1.90242e-05
1.8996e-05
1.8888e-05
1.88697e-05
1.87629e-05
1.87534e-05
1.86474e-05
1.86453e-05
1.85405e-05
1.85452e-05
1.8441e-05
1.84508e-05
1.8349e-05
1.83627e-05
1.82626e-05
1.82787e-05
1.81818e-05
1.81985e-05
1.81064e-05
1.81212e-05
1.80359e-05
1.80464e-05
1.79704e-05
1.79734e-05
1.79098e-05
1.79018e-05
1.78541e-05
1.7831e-05
1.77789e-05
2.13949e-05
2.11011e-05
2.08615e-05
2.06357e-05
2.0459e-05
2.02768e-05
2.01407e-05
1.99852e-05
1.98778e-05
1.97394e-05
1.96542e-05
1.95276e-05
1.94603e-05
1.9341e-05
1.92887e-05
1.91749e-05
1.91356e-05
1.90254e-05
1.89973e-05
1.88893e-05
1.88711e-05
1.87643e-05
1.87549e-05
1.86483e-05
1.86466e-05
1.85415e-05
1.85464e-05
1.84418e-05
1.84521e-05
1.83496e-05
1.83636e-05
1.82631e-05
1.82793e-05
1.81822e-05
1.81988e-05
1.81068e-05
1.81215e-05
1.80363e-05
1.80467e-05
1.79707e-05
1.79737e-05
1.79101e-05
1.7902e-05
1.78543e-05
1.78312e-05
1.77789e-05
2.13948e-05
2.11007e-05
2.08609e-05
2.06346e-05
2.04579e-05
2.02755e-05
2.014e-05
1.99844e-05
1.98775e-05
1.97391e-05
1.9654e-05
1.9527e-05
1.94597e-05
1.93404e-05
1.92881e-05
1.91743e-05
1.9135e-05
1.90247e-05
1.89966e-05
1.88885e-05
1.88704e-05
1.87635e-05
1.87543e-05
1.86483e-05
1.86468e-05
1.85414e-05
1.85465e-05
1.84415e-05
1.84519e-05
1.8349e-05
1.83631e-05
1.82627e-05
1.8279e-05
1.81819e-05
1.81987e-05
1.81067e-05
1.81215e-05
1.80363e-05
1.80467e-05
1.79707e-05
1.79737e-05
1.79101e-05
1.79021e-05
1.78544e-05
1.78313e-05
1.77789e-05
2.13884e-05
2.11097e-05
2.08516e-05
2.06469e-05
2.04443e-05
2.02919e-05
2.01218e-05
2.00062e-05
1.9853e-05
1.97834e-05
1.9679e-05
1.95813e-05
1.94891e-05
1.94015e-05
1.93185e-05
1.92395e-05
1.91641e-05
1.90916e-05
1.90227e-05
1.89569e-05
1.88933e-05
1.88333e-05
1.87761e-05
1.87221e-05
1.86711e-05
1.86226e-05
1.85764e-05
1.85323e-05
1.84858e-05
1.83832e-05
1.83969e-05
1.82967e-05
1.83127e-05
1.82157e-05
1.82323e-05
1.81401e-05
1.81548e-05
1.80695e-05
1.80798e-05
1.80039e-05
1.80068e-05
1.79431e-05
1.79351e-05
1.78873e-05
1.78642e-05
1.7812e-05
2.1392e-05
2.11034e-05
2.08605e-05
2.06385e-05
2.04604e-05
2.0275e-05
2.01658e-05
2.00365e-05
1.99167e-05
1.98041e-05
1.96975e-05
1.95963e-05
1.94999e-05
1.94079e-05
1.93214e-05
1.92396e-05
1.91625e-05
1.909e-05
1.9022e-05
1.89577e-05
1.88969e-05
1.88385e-05
1.87819e-05
1.87274e-05
1.86746e-05
1.86228e-05
1.85729e-05
1.85247e-05
1.84789e-05
1.84342e-05
1.83908e-05
1.8349e-05
1.8309e-05
1.82715e-05
1.82365e-05
1.82036e-05
1.81808e-05
1.80953e-05
1.81056e-05
1.80296e-05
1.80325e-05
1.79688e-05
1.79608e-05
1.79132e-05
1.78902e-05
1.78383e-05
2.13915e-05
2.1103e-05
2.08568e-05
2.0647e-05
2.04489e-05
2.03111e-05
2.01701e-05
2.0041e-05
1.99217e-05
1.98103e-05
1.97053e-05
1.96059e-05
1.9512e-05
1.94229e-05
1.93383e-05
1.92571e-05
1.91795e-05
1.91064e-05
1.90376e-05
1.89723e-05
1.89099e-05
1.88495e-05
1.87912e-05
1.87352e-05
1.86814e-05
1.86296e-05
1.85795e-05
1.85311e-05
1.84845e-05
1.84395e-05
1.83958e-05
1.83536e-05
1.83127e-05
1.82733e-05
1.82353e-05
1.81985e-05
1.81632e-05
1.81067e-05
1.81167e-05
1.80407e-05
1.80433e-05
1.79797e-05
1.79714e-05
1.79236e-05
1.79004e-05
1.78484e-05
2.13905e-05
2.11026e-05
2.08554e-05
2.06472e-05
2.04486e-05
2.03146e-05
2.01729e-05
2.00431e-05
1.99223e-05
1.98084e-05
1.96999e-05
1.95965e-05
1.94979e-05
1.94048e-05
1.93175e-05
1.92348e-05
1.91581e-05
1.90863e-05
1.90193e-05
1.89557e-05
1.88944e-05
1.88349e-05
1.87787e-05
1.87254e-05
1.86738e-05
1.8624e-05
1.85752e-05
1.85275e-05
1.84809e-05
1.84356e-05
1.83914e-05
1.83485e-05
1.83071e-05
1.82676e-05
1.823e-05
1.81945e-05
1.81608e-05
1.81064e-05
1.81165e-05
1.80407e-05
1.80435e-05
1.79802e-05
1.79721e-05
1.79246e-05
1.79015e-05
1.78496e-05
2.13898e-05
2.11027e-05
2.08545e-05
2.06472e-05
2.04477e-05
2.03222e-05
2.0179e-05
2.00461e-05
1.99219e-05
1.98057e-05
1.96967e-05
1.95949e-05
1.94993e-05
1.94099e-05
1.93252e-05
1.92458e-05
1.91718e-05
1.91017e-05
1.90352e-05
1.8971e-05
1.89083e-05
1.88476e-05
1.87906e-05
1.87362e-05
1.86842e-05
1.86335e-05
1.85842e-05