/*--------------------------------*- C++ -*----------------------------------*\
  =========                 |
  \\      /  F ield         | OpenFOAM: The Open Source CFD Toolbox
   \\    /   O peration     | Website:  https://openfoam.org
    \\  /    A nd           | Version:  7
     \\/     M anipulation  |
\*---------------------------------------------------------------------------*/
FoamFile
{
    version     2.0;
    format      ascii;
    class       volScalarField;
    location    "500";
    object      p;
}
// * * * * * * * * * * * * * * * * * * * * * * * * * * * * * * * * * * * * * //

dimensions      [0 2 -2 0 0 0 0];

internalField   nonuniform List<scalar> 
158652
(
0.00038268
0.000381313
0.000377493
0.000371814
0.000363844
0.000351809
0.000336062
0.000313599
0.000285284
0.00024803
0.000201843
0.000146231
8.2132e-05
1.19978e-05
-5.97445e-05
-0.000128039
-0.000185631
-0.000229099
-0.000252833
-0.000261494
-0.000257253
-0.000237987
-0.000216475
-0.000194163
-0.000171056
-0.000149316
-0.000130051
-0.000112972
-9.80975e-05
-8.50424e-05
-7.36119e-05
-6.35016e-05
-5.44634e-05
-4.6433e-05
-3.91817e-05
-3.28262e-05
-2.70687e-05
-2.21123e-05
-1.77676e-05
-1.41289e-05
-1.10064e-05
-8.51886e-06
-6.37536e-06
-4.6757e-06
-3.00814e-06
-1.69952e-06
0.000383454
0.000382446
0.000379022
0.000373324
0.000365684
0.000354411
0.000338909
0.000317786
0.000289457
0.00025352
0.000207059
0.00015126
8.58117e-05
1.33641e-05
-6.17046e-05
-0.000133061
-0.000193792
-0.000237743
-0.000262371
-0.000268309
-0.000260814
-0.000242124
-0.000218738
-0.000194291
-0.000170292
-0.000148229
-0.000128788
-0.000111755
-9.71391e-05
-8.4254e-05
-7.29643e-05
-6.29624e-05
-5.39612e-05
-4.59766e-05
-3.86904e-05
-3.23259e-05
-2.65955e-05
-2.1688e-05
-1.73419e-05
-1.3679e-05
-1.04933e-05
-7.94427e-06
-5.78634e-06
-4.13093e-06
-2.61426e-06
-1.48109e-06
0.000385165
0.000384012
0.000381411
0.000376611
0.000369534
0.00035941
0.00034513
0.00032482
0.00029917
0.000262118
0.000217044
0.000159308
9.12567e-05
1.47429e-05
-6.5903e-05
-0.00014334
-0.000209328
-0.00025596
-0.000279698
-0.000282536
-0.00027023
-0.000247825
-0.000221252
-0.00019438
-0.000169056
-0.000146263
-0.000126822
-0.00010973
-9.5126e-05
-8.25078e-05
-7.15372e-05
-6.17585e-05
-5.30093e-05
-4.51603e-05
-3.82124e-05
-3.18993e-05
-2.61031e-05
-2.12362e-05
-1.70606e-05
-1.35671e-05
-1.06971e-05
-8.39092e-06
-6.49147e-06
-4.91603e-06
-3.26471e-06
-1.95089e-06
0.000387508
0.000386636
0.000384174
0.000380447
0.000374226
0.000366038
0.0003533
0.000335077
0.000310819
0.000277635
0.000230138
0.000174947
0.000101864
1.83348e-05
-7.12462e-05
-0.000157808
-0.000230787
-0.000281169
-0.000304235
-0.000302469
-0.00028373
-0.000255251
-0.000223939
-0.000193747
-0.000166658
-0.00014304
-0.000122976
-0.000107066
-9.35674e-05
-8.08453e-05
-7.01579e-05
-6.05624e-05
-5.1902e-05
-4.4131e-05
-3.69409e-05
-3.09011e-05
-2.51296e-05
-2.03171e-05
-1.60191e-05
-1.23493e-05
-9.24266e-06
-6.83992e-06
-4.91473e-06
-3.52166e-06
-2.34308e-06
-1.56348e-06
0.000390038
0.00038931
0.000387665
0.000384478
0.00037977
0.000372304
0.000362395
0.000346136
0.000325892
0.000289517
0.000248246
0.000192186
0.000127443
4.34176e-05
-5.07373e-05
-0.000147173
-0.000232533
-0.000290877
-0.000319255
-0.000319743
-0.000300149
-0.000270376
-0.000235011
-0.000201734
-0.000171517
-0.000146188
-0.000120322
-0.000102058
-8.92322e-05
-7.77778e-05
-6.77283e-05
-5.8719e-05
-5.05216e-05
-4.3481e-05
-3.72784e-05
-3.0414e-05
-2.45067e-05
-1.97628e-05
-1.57889e-05
-1.2558e-05
-9.85875e-06
-7.91004e-06
-6.2552e-06
-4.89789e-06
-3.37618e-06
-2.2701e-06
0.000392553
0.000392014
0.000390703
0.000388535
0.000384787
0.000379219
0.000370491
0.000357009
0.000336473
0.000303034
0.000269416
0.000212825
0.000141824
5.14266e-05
-5.283e-05
-0.000160254
-0.000254739
-0.000320097
-0.000348763
-0.000344188
-0.000316591
-0.000278167
-0.000237552
-0.000200262
-0.000168382
-0.000142284
-0.000121416
-9.96047e-05
-8.67855e-05
-7.5807e-05
-6.62554e-05
-5.72924e-05
-4.94565e-05
-4.18978e-05
-3.57958e-05
-3.00436e-05
-2.34176e-05
-1.87545e-05
-1.43634e-05
-1.0813e-05
-7.92275e-06
-6.07207e-06
-4.63993e-06
-3.71143e-06
-2.80857e-06
-2.31367e-06
0.00039445
0.000394158
0.00039308
0.000391694
0.000388633
0.000384685
0.000377049
0.000366295
0.000346401
0.000318421
0.000282375
0.000229237
0.00015464
5.8886e-05
-5.38328e-05
-0.000171631
-0.000275799
-0.000346921
-0.000375012
-0.000365315
-0.000330003
-0.000284692
-0.000239258
-0.000198927
-0.000165574
-0.000139068
-0.000118415
-9.78256e-05
-8.43522e-05
-7.4035e-05
-6.48911e-05
-5.61257e-05
-4.85863e-05
-4.09986e-05
-3.52335e-05
-2.95382e-05
-2.29484e-05
-1.86461e-05
-1.47222e-05
-1.12266e-05
-8.46863e-06
-6.82143e-06
-5.27575e-06
-4.05159e-06
-2.37263e-06
-1.60212e-06
0.000395473
0.000395221
0.000394496
0.000393395
0.000390971
0.000387519
0.000380904
0.000370478
0.00035242
0.0003247
0.000290097
0.000238351
0.000162834
6.39708e-05
-5.41806e-05
-0.000179006
-0.000289911
-0.0003649
-0.000392552
-0.000378209
-0.000338346
-0.000288797
-0.000240275
-0.000198127
-0.000163779
-0.000137028
-0.000116268
-9.65317e-05
-8.31256e-05
-7.3309e-05
-6.43698e-05
-5.57462e-05
-4.82614e-05
-4.07075e-05
-3.49532e-05
-2.9384e-05
-2.25118e-05
-1.83212e-05
-1.42705e-05
-1.06861e-05
-8.1995e-06
-7.12848e-06
-6.27368e-06
-5.53987e-06
-4.16362e-06
-3.11786e-06
0.000395552
0.000395286
0.000394548
0.000393448
0.00039103
0.000387575
0.000380975
0.000370545
0.000352503
0.000324734
0.000291781
0.000239711
0.000164238
6.48712e-05
-5.43419e-05
-0.000180648
-0.000293022
-0.000368819
-0.000396155
-0.000381025
-0.000340261
-0.000289879
-0.000240739
-0.000198229
-0.000163692
-0.000136875
-0.000116102
-9.68647e-05
-8.34744e-05
-7.36487e-05
-6.46988e-05
-5.60639e-05
-4.85328e-05
-4.09465e-05
-3.5062e-05
-2.94699e-05
-2.23058e-05
-1.78373e-05
-1.34267e-05
-8.84804e-06
-5.75839e-06
-3.94707e-06
-2.52158e-06
-1.35e-06
-5.25283e-07
-3.29149e-07
0.00039465
0.000394354
0.000393266
0.000391875
0.00038882
0.000384882
0.000377209
0.000366407
0.000346583
0.000318564
0.000284723
0.000233077
0.00015855
6.12757e-05
-5.44353e-05
-0.00017621
-0.000284251
-0.000357664
-0.000385733
-0.00037327
-0.000335406
-0.000287773
-0.000240619
-0.000199287
-0.000165307
-0.000138648
-0.000117846
-9.89041e-05
-8.53066e-05
-7.50191e-05
-6.58108e-05
-5.70517e-05
-4.93825e-05
-4.17454e-05
-3.57908e-05
-2.99453e-05
-2.31077e-05
-1.87625e-05
-1.50475e-05
-1.17322e-05
-9.56724e-06
-8.4017e-06
-7.4407e-06
-6.55931e-06
-5.22204e-06
-3.70657e-06
0.000392882
0.000392333
0.000391015
0.000388833
0.000385083
0.0003795
0.000370755
0.000357292
0.000336764
0.000303289
0.000274628
0.000220968
0.000147696
5.4421e-05
-5.4217e-05
-0.000166951
-0.000266413
-0.000334689
-0.000363128
-0.00035601
-0.000324651
-0.000282712
-0.000239699
-0.00020091
-0.000168159
-0.000141801
-0.000120635
-0.00010127
-8.833e-05
-7.73622e-05
-6.77371e-05
-5.87498e-05
-5.0757e-05
-4.30795e-05
-3.66647e-05
-3.07411e-05
-2.3825e-05
-1.89006e-05
-1.42782e-05
-1.02494e-05
-7.06492e-06
-4.67172e-06
-2.88514e-06
-1.39375e-06
-7.00678e-07
-2.98222e-07
0.000390461
0.000389739
0.000388088
0.000384878
0.000380165
0.000372647
0.000362738
0.000346512
0.000326235
0.000289809
0.000248487
0.000201906
0.000134482
4.67138e-05
-5.33815e-05
-0.000155606
-0.000245534
-0.000306987
-0.000335237
-0.000333366
-0.000310136
-0.000275717
-0.000237882
-0.000202553
-0.000171602
-0.000145904
-0.000122567
-0.000104225
-9.12867e-05
-7.97801e-05
-6.96491e-05
-6.0574e-05
-5.22269e-05
-4.50025e-05
-3.84738e-05
-3.14915e-05
-2.52783e-05
-2.03578e-05
-1.62902e-05
-1.30288e-05
-1.05229e-05
-8.72177e-06
-7.33255e-06
-6.14248e-06
-4.69835e-06
-3.34146e-06
0.000388025
0.000387167
0.000384683
0.000380932
0.000374665
0.00036643
0.000353662
0.000335482
0.000311184
0.000277908
0.000230354
0.000175102
0.000101928
1.83148e-05
-7.14046e-05
-0.000158131
-0.000231382
-0.000282096
-0.000305488
-0.000304092
-0.000285657
-0.000257518
-0.000226446
-0.000196376
-0.000169265
-0.000145743
-0.000125558
-0.000109531
-9.59473e-05
-8.31872e-05
-7.23969e-05
-6.27115e-05
-5.38973e-05
-4.59388e-05
-3.85535e-05
-3.2249e-05
-2.6311e-05
-2.11973e-05
-1.67224e-05
-1.28959e-05
-9.60177e-06
-7.00013e-06
-4.8176e-06
-3.13043e-06
-1.88106e-06
-1.11756e-06
0.000385757
0.000384592
0.000381974
0.000377149
0.000369977
0.000359824
0.000345568
0.000325241
0.000299511
0.00026241
0.000217251
0.000159451
9.12673e-05
1.46538e-05
-6.61954e-05
-0.00014377
-0.000210074
-0.000256993
-0.000281077
-0.000284278
-0.000272293
-0.000250215
-0.000223883
-0.000197151
-0.000171921
-0.000149166
-0.00012968
-0.000112506
-9.78036e-05
-8.50818e-05
-7.39977e-05
-6.41076e-05
-5.5193e-05
-4.71897e-05
-4.0005e-05
-3.35055e-05
-2.74813e-05
-2.24058e-05
-1.80643e-05
-1.44505e-05
-1.14649e-05
-9.12111e-06
-7.18507e-06
-5.63786e-06
-3.87917e-06
-2.34736e-06
0.000384083
0.000383052
0.000379606
0.000373894
0.000366166
0.000354878
0.000339353
0.000318186
0.000289802
0.000253811
0.000207243
0.000151336
8.57611e-05
1.31838e-05
-6.21029e-05
-0.000133649
-0.00019462
-0.000238868
-0.000263859
-0.000270123
-0.000262967
-0.000244666
-0.000221488
-0.000197213
-0.000173294
-0.000151275
-0.000131768
-0.000114671
-9.99653e-05
-8.69874e-05
-7.55772e-05
-6.54444e-05
-5.63003e-05
-4.81265e-05
-4.06726e-05
-3.40722e-05
-2.8175e-05
-2.30544e-05
-1.85582e-05
-1.47467e-05
-1.14229e-05
-8.74037e-06
-6.43101e-06
-4.58098e-06
-2.90011e-06
-1.60204e-06
0.000383318
0.000381954
0.000378102
0.000372371
0.000364369
0.000352271
0.000336495
0.000314016
0.000285627
0.000248295
0.000202005
0.000146295
8.21925e-05
1.19848e-05
-6.00392e-05
-0.000128563
-0.000186438
-0.000230258
-0.000254378
-0.000263363
-0.000259391
-0.00024056
-0.000219266
-0.000197096
-0.000174095
-0.000152383
-0.000133106
-0.00011595
-0.000101035
-8.78817e-05
-7.63297e-05
-6.60665e-05
-5.68812e-05
-4.86693e-05
-4.12593e-05
-3.46885e-05
-2.87529e-05
-2.35843e-05
-1.9069e-05
-1.52897e-05
-1.20167e-05
-9.39474e-06
-7.10902e-06
-5.27141e-06
-3.44884e-06
-1.93576e-06
0.000383401
0.000382387
0.000378945
0.000373233
0.000365586
0.000354307
0.000338806
0.000317695
0.000289404
0.000253459
0.000207005
0.00015123
8.57073e-05
1.31149e-05
-6.19929e-05
-0.00013339
-0.000194138
-0.000238079
-0.000262682
-0.00026856
-0.00026107
-0.000242339
-0.000218905
-0.000194472
-0.000170429
-0.000148336
-0.00012886
-0.0001118
-9.71756e-05
-8.42661e-05
-7.2975e-05
-6.29652e-05
-5.39688e-05
-4.59594e-05
-3.86722e-05
-3.22771e-05
-2.65355e-05
-2.16028e-05
-1.72231e-05
-1.35467e-05
-1.03441e-05
-7.78716e-06
-5.60858e-06
-3.94917e-06
-2.47482e-06
-1.3918e-06
0.000384397
0.000383201
0.00038027
0.000375338
0.000367624
0.000356805
0.000342501
0.00032134
0.000295163
0.000258133
0.000211916
0.000156329
8.99738e-05
1.51051e-05
-6.36051e-05
-0.000139228
-0.000203707
-0.000249508
-0.000273703
-0.000277515
-0.000266557
-0.000245681
-0.000220367
-0.000194275
-0.000169422
-0.000146948
-0.000127462
-0.000110221
-9.58699e-05
-8.32191e-05
-7.21128e-05
-6.22642e-05
-5.33341e-05
-4.5404e-05
-3.79289e-05
-3.15653e-05
-2.58703e-05
-2.09639e-05
-1.65141e-05
-1.28213e-05
-9.52587e-06
-6.91575e-06
-4.68547e-06
-3.05643e-06
-1.79019e-06
-9.98757e-07
0.000386151
0.000385196
0.00038257
0.000378363
0.000372222
0.000362528
0.000349271
0.000330419
0.000304451
0.000273595
0.000226554
0.000168395
9.81987e-05
1.75309e-05
-6.88396e-05
-0.000152268
-0.000222796
-0.000271143
-0.000294181
-0.000293793
-0.000277386
-0.000251124
-0.000221609
-0.000192893
-0.000166861
-0.000144048
-0.00012471
-0.00010785
-9.32818e-05
-8.1208e-05
-7.0551e-05
-6.09306e-05
-5.22314e-05
-4.43321e-05
-3.7346e-05
-3.10155e-05
-2.54912e-05
-2.0671e-05
-1.6444e-05
-1.28737e-05
-9.89653e-06
-7.55257e-06
-5.6839e-06
-4.12232e-06
-2.77253e-06
-1.68097e-06
0.000388526
0.000387597
0.000385843
0.000382075
0.000376946
0.000369002
0.000358533
0.000341203
0.000318494
0.000282102
0.000244453
0.000191932
0.00012279
4.10803e-05
-4.98184e-05
-0.000141486
-0.00022192
-0.000279318
-0.000306598
-0.000307884
-0.000291055
-0.000263461
-0.000230927
-0.000199463
-0.000171006
-0.000146876
-0.000126124
-0.000108488
-9.09108e-05
-7.87223e-05
-6.86628e-05
-5.9354e-05
-5.09176e-05
-4.2802e-05
-3.49524e-05
-2.92469e-05
-2.37886e-05
-1.8935e-05
-1.4592e-05
-1.0847e-05
-7.44727e-06
-4.85637e-06
-2.75625e-06
-1.35476e-06
-7.39613e-07
-5.03324e-07
0.000391301
0.000390536
0.000389413
0.000386482
0.000383016
0.000376125
0.000367989
0.000353793
0.000330165
0.000302852
0.000267205
0.000213518
0.00014121
5.2258e-05
-5.02378e-05
-0.000155972
-0.000249126
-0.000313012
-0.000340601
-0.000335874
-0.000309568
-0.000272776
-0.000233952
-0.000198423
-0.000167889
-0.000143067
-0.00012408
-0.000105255
-9.15574e-05
-8.00086e-05
-6.97016e-05
-6.04282e-05
-5.18718e-05
-4.43259e-05
-3.54718e-05
-2.83202e-05
-2.32388e-05
-1.8499e-05
-1.4544e-05
-1.13891e-05
-8.5926e-06
-6.62808e-06
-4.92353e-06
-3.65104e-06
-2.50697e-06
-1.4717e-06
0.000393737
0.000393462
0.000392504
0.000390792
0.0003882
0.000383688
0.000377238
0.000361882
0.000346806
0.00032262
0.000287672
0.000232646
0.000159009
6.37994e-05
-5.01719e-05
-0.000171424
-0.000279149
-0.000351433
-0.000377857
-0.000364664
-0.000327074
-0.000280648
-0.000235365
-0.000195898
-0.000163608
-0.000138151
-0.000118458
-0.000102352
-8.84034e-05
-7.73816e-05
-6.74477e-05
-5.87463e-05
-5.02353e-05
-4.28088e-05
-3.4771e-05
-2.6673e-05
-2.22394e-05
-1.69699e-05
-1.21237e-05
-8.37752e-06
-4.8002e-06
-2.77497e-06
-1.03364e-06
-4.98246e-07
-6.09469e-07
-6.36798e-07
0.000395709
0.000395417
0.000395246
0.000393931
0.000392742
0.00038936
0.000384725
0.000372674
0.000359354
0.0003388
0.000304052
0.00025077
0.000175893
7.53072e-05
-4.9014e-05
-0.000184509
-0.000306925
-0.00038778
-0.000412231
-0.000389895
-0.000341643
-0.000286535
-0.000235609
-0.000193072
-0.000159507
-0.000133804
-0.000114306
-9.96468e-05
-8.55877e-05
-7.53645e-05
-6.57938e-05
-5.75628e-05
-4.91641e-05
-4.19039e-05
-3.4555e-05
-2.57503e-05
-2.19582e-05
-1.7598e-05
-1.31718e-05
-9.25206e-06
-6.1623e-06
-4.18274e-06
-2.41883e-06
-5.99985e-07
-5.89817e-08
-1.8838e-07
0.000396775
0.000396652
0.000396589
0.000395848
0.000395021
0.000392697
0.000388843
0.00037871
0.000367202
0.000348025
0.000314945
0.000262783
0.000187434
8.35897e-05
-4.76362e-05
-0.000193154
-0.00032595
-0.000412727
-0.000435233
-0.00040611
-0.000350638
-0.000289924
-0.000235459
-0.000191126
-0.000156773
-0.000131053
-0.000111836
-9.80407e-05
-8.3972e-05
-7.42771e-05
-6.50166e-05
-5.70701e-05
-4.87801e-05
-4.14754e-05
-3.39348e-05
-2.54881e-05
-2.18083e-05
-1.72067e-05
-1.23383e-05
-8.08246e-06
-5.63033e-06
-4.54705e-06
-4.09891e-06
-3.01888e-06
-1.64336e-06
-1.02875e-06
0.000396843
0.00039671
0.000396657
0.00039591
0.000395086
0.000392754
0.000388893
0.000379793
0.000368481
0.000349744
0.000317369
0.000265144
0.000189776
8.53348e-05
-4.73074e-05
-0.00019502
-0.000330214
-0.000418189
-0.0004402
-0.00040963
-0.000352659
-0.000290811
-0.000235644
-0.000190971
-0.000156471
-0.000130736
-0.000111581
-9.81729e-05
-8.39194e-05
-7.44187e-05
-6.51183e-05
-5.73398e-05
-4.89191e-05
-4.15619e-05
-3.395e-05
-2.53543e-05
-2.15147e-05
-1.62449e-05
-1.05208e-05
-4.34923e-06
-6.31911e-07
2.19819e-06
3.5973e-06
4.24128e-06
4.29584e-06
3.01696e-06
0.000395904
0.000395602
0.000395428
0.00039411
0.000392915
0.000389543
0.000384916
0.000376113
0.000363238
0.000343851
0.000309933
0.000257096
0.000182094
7.97535e-05
-4.84464e-05
-0.000189617
-0.000317921
-0.000402324
-0.000425799
-0.000399598
-0.000347343
-0.000289182
-0.00023631
-0.000192812
-0.000158754
-0.000133016
-0.000113636
-9.95888e-05
-8.55035e-05
-7.55577e-05
-6.62107e-05
-5.81195e-05
-4.97062e-05
-4.21793e-05
-3.45001e-05
-2.57739e-05
-2.18896e-05
-1.76562e-05
-1.32672e-05
-9.61525e-06
-7.54564e-06
-6.57946e-06
-5.60976e-06
-4.7853e-06
-3.87515e-06
-2.84366e-06
0.000394061
0.000393771
0.000392822
0.000391097
0.000388488
0.000383994
0.000377516
0.000367499
0.000353807
0.000329953
0.000295246
0.000241271
0.000167062
6.91286e-05
-5.00964e-05
-0.000178579
-0.000293941
-0.00037054
-0.000396155
-0.00037854
-0.000335618
-0.000284931
-0.000236877
-0.000195933
-0.000162895
-0.000137295
-0.000117587
-0.000102308
-8.83656e-05
-7.77749e-05
-6.80503e-05
-5.95192e-05
-5.10332e-05
-4.33283e-05
-3.55764e-05
-2.73191e-05
-2.24522e-05
-1.67488e-05
-1.15031e-05
-6.93299e-06
-3.35915e-06
-1.68631e-07
1.81528e-06
3.05722e-06
3.23829e-06
3.02705e-06
0.000391731
0.000390966
0.000389836
0.000386891
0.00038339
0.000376488
0.000368387
0.000354234
0.000338397
0.00031251
0.000276534
0.000222904
0.000149221
5.70564e-05
-5.12251e-05
-0.000164546
-0.000264615
-0.000332623
-0.000359845
-0.000351385
-0.00031988
-0.000278477
-0.000236641
-0.000199247
-0.000167818
-0.000142831
-0.000124115
-0.000105578
-9.18069e-05
-8.03934e-05
-7.02118e-05
-6.11372e-05
-5.25898e-05
-4.4891e-05
-3.68226e-05
-2.93603e-05
-2.38538e-05
-1.89673e-05
-1.49058e-05
-1.15996e-05
-9.04564e-06
-7.19349e-06
-5.83351e-06
-4.68771e-06
-3.63699e-06
-2.4381e-06
0.000389047
0.000388135
0.000386351
0.000382567
0.000377402
0.000369435
0.000358969
0.000341595
0.000318848
0.000292044
0.000254994
0.000202136
0.000131888
4.62285e-05
-5.05961e-05
-0.000149515
-0.000237295
-0.000297496
-0.000325087
-0.000323785
-0.000302869
-0.000270872
-0.000235133
-0.000201647
-0.000171982
-0.000147436
-0.000126789
-0.000109351
-9.3392e-05
-8.12097e-05
-7.10102e-05
-6.16423e-05
-5.29953e-05
-4.47683e-05
-3.6678e-05
-3.06249e-05
-2.48634e-05
-1.97726e-05
-1.52125e-05
-1.11966e-05
-7.64291e-06
-4.75245e-06
-2.38297e-06
-5.6906e-07
-3.91337e-08
-1.65424e-08
0.000386749
0.000385788
0.000383139
0.00037891
0.000372734
0.000362949
0.00034969
0.000330824
0.000304761
0.000273891
0.000226803
0.00016856
9.82362e-05
1.74811e-05
-6.88915e-05
-0.000152392
-0.000223388
-0.000272169
-0.000295539
-0.000295541
-0.000279485
-0.0002536
-0.000224388
-0.000195826
-0.000169887
-0.00014707
-0.000127648
-0.000110695
-9.60154e-05
-8.38649e-05
-7.31074e-05
-6.33709e-05
-5.45302e-05
-4.64436e-05
-3.92404e-05
-3.26807e-05
-2.69338e-05
-2.1894e-05
-1.74935e-05
-1.37612e-05
-1.06767e-05
-8.26449e-06
-6.2908e-06
-4.73285e-06
-3.2458e-06
-1.93351e-06
0.000385036
0.000383829
0.000380835
0.000375941
0.000368119
0.000357301
0.00034294
0.000321704
0.000295469
0.000258423
0.000212119
0.000156518
8.99755e-05
1.49296e-05
-6.39783e-05
-0.000139774
-0.000204453
-0.0002506
-0.00027516
-0.000279331
-0.000268723
-0.000248214
-0.000223167
-0.000197264
-0.000172525
-0.000150098
-0.000130567
-0.000113265
-9.87794e-05
-8.60817e-05
-7.48409e-05
-6.48816e-05
-5.57758e-05
-4.76733e-05
-4.00181e-05
-3.33982e-05
-2.75189e-05
-2.23782e-05
-1.78036e-05
-1.39162e-05
-1.04905e-05
-7.70704e-06
-5.32313e-06
-3.42744e-06
-1.99542e-06
-1.08108e-06
0.00038405
0.000383039
0.000379578
0.000373827
0.000366113
0.000354813
0.000339262
0.0003181
0.000289765
0.000253762
0.000207344
0.000151558
8.59796e-05
1.32063e-05
-6.22274e-05
-0.000133879
-0.00019488
-0.000239227
-0.000264201
-0.000270421
-0.000263297
-0.000244982
-0.000221773
-0.000197431
-0.000173509
-0.000151475
-0.000132006
-0.000114874
-0.000100186
-8.72087e-05
-7.57999e-05
-6.56454e-05
-5.64977e-05
-4.82975e-05
-4.08495e-05
-3.42308e-05
-2.83188e-05
-2.31839e-05
-1.86291e-05
-1.47877e-05
-1.14437e-05
-8.74595e-06
-6.4335e-06
-4.58053e-06
-2.92168e-06
-1.61657e-06
0.000385003
0.000383843
0.000381232
0.0003764
0.000369302
0.000359121
0.000344808
0.000324456
0.000298782
0.000261698
0.000216559
0.000158705
9.04959e-05
1.38968e-05
-6.6849e-05
-0.000144344
-0.000210316
-0.000256908
-0.0002806
-0.000283381
-0.000270991
-0.000248478
-0.000221747
-0.000194752
-0.000169305
-0.000146429
-0.000126953
-0.000109854
-9.52145e-05
-8.25329e-05
-7.15398e-05
-6.17459e-05
-5.29699e-05
-4.50889e-05
-3.8089e-05
-3.1729e-05
-2.59013e-05
-2.09603e-05
-1.67962e-05
-1.32735e-05
-1.04579e-05
-8.17448e-06
-6.34828e-06
-4.83053e-06
-3.23648e-06
-1.97544e-06
0.000386036
0.000385085
0.000382445
0.000378214
0.000372052
0.000362314
0.000349015
0.000330097
0.000304054
0.000273252
0.000226244
0.000167982
9.77116e-05
1.69773e-05
-6.9287e-05
-0.00015264
-0.000223352
-0.000271704
-0.000294694
-0.000294254
-0.00027777
-0.000251439
-0.000221841
-0.000193024
-0.000166953
-0.000144087
-0.000124721
-0.000107883
-9.32785e-05
-8.11962e-05
-7.05071e-05
-6.088e-05
-5.21614e-05
-4.4257e-05
-3.72725e-05
-3.09273e-05
-2.53361e-05
-2.0477e-05
-1.63133e-05
-1.26863e-05
-9.81183e-06
-7.47261e-06
-5.715e-06
-4.19394e-06
-2.8843e-06
-1.83929e-06
0.000387901
0.000387018
0.000385078
0.000381346
0.000375989
0.000368823
0.000358133
0.000340375
0.000317308
0.000279566
0.000242995
0.000189104
0.000121007
4.07098e-05
-4.91063e-05
-0.000139703
-0.000220165
-0.000276514
-0.000303623
-0.000304482
-0.000287941
-0.000261504
-0.000230083
-0.000198583
-0.000170922
-0.00014673
-0.000126574
-0.000109581
-9.12773e-05
-7.9183e-05
-6.88963e-05
-5.95522e-05
-5.10611e-05
-4.3275e-05
-3.63271e-05
-2.97947e-05
-2.36337e-05
-1.94186e-05
-1.56555e-05
-1.25812e-05
-1.01562e-05
-8.35196e-06
-6.91817e-06
-5.66926e-06
-3.92536e-06
-2.42305e-06
0.000390598
0.000389864
0.000388506
0.000385642
0.000381833
0.000375893
0.000362752
0.000348387
0.000334499
0.000303936
0.000265303
0.000212368
0.000142001
5.36628e-05
-4.88921e-05
-0.000156924
-0.000251275
-0.00031585
-0.000342258
-0.000335524
-0.00030773
-0.0002702
-0.000231163
-0.000195893
-0.000166137
-0.000141614
-0.000121566
-0.000105438
-9.33621e-05
-8.06245e-05
-7.02706e-05
-6.07981e-05
-5.21777e-05
-4.41757e-05
-3.69876e-05
-3.08235e-05
-2.35104e-05
-1.86845e-05
-1.45406e-05
-1.08802e-05
-8.17905e-06
-6.21418e-06
-4.98171e-06
-4.08542e-06
-3.1297e-06
-2.05547e-06
0.000393468
0.000393138
0.000392161
0.00039099
0.000388114
0.000385635
0.000373072
0.000365546
0.000350965
0.00032677
0.000291632
0.000240281
0.000167914
7.10256e-05
-4.79359e-05
-0.000177735
-0.000293275
-0.000369345
-0.000392923
-0.000373216
-0.0003293
-0.000278191
-0.000230677
-0.00019112
-0.000159485
-0.000134803
-0.000115558
-9.99925e-05
-8.77592e-05
-7.69461e-05
-6.74425e-05
-5.8627e-05
-5.03723e-05
-4.28007e-05
-3.64183e-05
-2.92751e-05
-2.16322e-05
-1.75449e-05
-1.44562e-05
-1.19613e-05
-1.00743e-05
-9.14087e-06
-8.2402e-06
-7.37274e-06
-5.4014e-06
-3.37765e-06
0.000396137
0.000396139
0.000395759
0.000395471
0.000394424
0.000393376
0.000384912
0.000379658
0.000367996
0.000349502
0.000319597
0.000271854
0.000199412
9.50755e-05
-4.27069e-05
-0.000200006
-0.000343057
-0.00043332
-0.000451444
-0.000413714
-0.000349894
-0.000283941
-0.000227867
-0.000184172
-0.000151358
-0.000127028
-0.000108749
-9.44379e-05
-8.31179e-05
-7.3505e-05
-6.48216e-05
-5.66167e-05
-4.86262e-05
-4.10411e-05
-3.40871e-05
-2.83894e-05
-1.9246e-05
-1.59501e-05
-1.15594e-05
-8.22866e-06
-6.10677e-06
-5.79988e-06
-4.99083e-06
-5.38398e-06
-5.33393e-06
-4.03951e-06
0.000398268
0.000398519
0.000398559
0.000399192
0.000399297
0.000400107
0.000394432
0.000390873
0.000383312
0.000369428
0.000344288
0.00030058
0.000229027
0.000119399
-3.34708e-05
-0.000217414
-0.000391689
-0.000497704
-0.000508379
-0.000449767
-0.000365785
-0.000286571
-0.00022335
-0.000176744
-0.000143476
-0.000119913
-0.000102755
-8.97832e-05
-7.94806e-05
-7.08734e-05
-6.29494e-05
-5.52673e-05
-4.74633e-05
-3.98769e-05
-3.28403e-05
-2.72274e-05
-1.83509e-05
-1.77449e-05
-1.48727e-05
-1.15114e-05
-1.03054e-05
-1.03848e-05
-9.94539e-06
-8.42465e-06
-5.76226e-06
-3.54567e-06
0.000399499
0.00039973
0.000400261
0.000401069
0.000402418
0.000403315
0.000399661
0.000397965
0.000392941
0.00038226
0.00036071
0.000320189
0.000250198
0.000137889
-2.54302e-05
-0.000228416
-0.000426088
-0.000545272
-0.000548384
-0.000473219
-0.000374889
-0.000286907
-0.000219566
-0.000171645
-0.0001382
-0.000115233
-9.8897e-05
-8.68607e-05
-7.73084e-05
-6.9417e-05
-6.20419e-05
-5.47025e-05
-4.69757e-05
-3.93073e-05
-3.2153e-05
-2.66542e-05
-1.68911e-05
-1.70297e-05
-1.35943e-05
-9.3037e-06
-7.93213e-06
-9.81232e-06
-1.04547e-05
-9.35495e-06
-7.35917e-06
-4.84663e-06
0.000399555
0.000399798
0.000400352
0.000401131
0.000402506
0.000403396
0.000400409
0.000399256
0.000394786
0.000384845
0.000364178
0.000324406
0.000254889
0.00014216
-2.33052e-05
-0.00023067
-0.000433791
-0.000555779
-0.000557049
-0.000478215
-0.000376754
-0.000286961
-0.000218848
-0.000170765
-0.000137378
-0.000114537
-9.8335e-05
-8.65254e-05
-7.71473e-05
-6.94227e-05
-6.21849e-05
-5.49477e-05
-4.71935e-05
-3.94092e-05
-3.20184e-05
-2.62495e-05
-1.55686e-05
-1.60801e-05
-1.05379e-05
-3.02773e-06
-2.81369e-06
-2.60358e-06
-2.86078e-06
-2.70333e-06
-3.72669e-06
-3.27325e-06
0.000398486
0.000398737
0.00039875
0.000399395
0.000399537
0.000400323
0.000397397
0.000394583
0.000388551
0.000376591
0.000353551
0.000311666
0.000241027
0.000129959
-2.87854e-05
-0.000223412
-0.00041087
-0.000524562
-0.000531268
-0.000463363
-0.000371312
-0.00028738
-0.000222004
-0.000174802
-0.000141438
-0.000118186
-0.000101424
-8.89541e-05
-7.9115e-05
-7.09576e-05
-6.34125e-05
-5.59524e-05
-4.81485e-05
-4.03426e-05
-3.29078e-05
-2.70593e-05
-1.74804e-05
-1.73541e-05
-1.59592e-05
-1.23089e-05
-1.20144e-05
-1.31505e-05
-1.23995e-05
-1.13286e-05
-8.1206e-06
-5.30227e-06
0.000396476
0.000396461
0.000396072
0.000395813
0.000394807
0.0003937
0.000390066
0.000384911
0.000375754
0.000359425
0.000332062
0.000286501
0.000214537
0.000107414
-3.81328e-05
-0.000209109
-0.000368072
-0.000465926
-0.000480486
-0.000432637
-0.000358673
-0.000286436
-0.000226961
-0.000181995
-0.000148987
-0.000125066
-0.00010726
-9.36214e-05
-8.28077e-05
-7.3762e-05
-6.55096e-05
-5.76065e-05
-4.96204e-05
-4.18007e-05
-3.44451e-05
-2.8627e-05
-1.93483e-05
-1.62908e-05
-1.09688e-05
-6.70018e-06
-4.60968e-06
-3.10936e-06
-2.69113e-06
-1.63128e-06
-2.00641e-06
-1.65567e-06
0.000393911
0.000393566
0.000392594
0.000391424
0.000388569
0.000385988
0.000379672
0.000372769
0.000359198
0.000337764
0.000304895
0.000255284
0.000182742
8.20371e-05
-4.62534e-05
-0.000188875
-0.000317254
-0.000400146
-0.000421479
-0.000393712
-0.00034066
-0.00028274
-0.000231423
-0.00019009
-0.000157869
-0.000133418
-0.000114616
-9.95833e-05
-8.75821e-05
-7.73309e-05
-6.81737e-05
-5.96409e-05
-5.14103e-05
-4.36818e-05
-3.73057e-05
-2.98196e-05
-2.23435e-05
-1.81932e-05
-1.50947e-05
-1.28145e-05
-1.14221e-05
-1.05349e-05
-9.92195e-06
-9.28204e-06
-6.91427e-06
-4.48957e-06
0.000391131
0.000390404
0.000389026
0.000386161
0.000382329
0.000376354
0.000368811
0.000357272
0.000342491
0.000314971
0.000277077
0.000224611
0.000153362
6.09174e-05
-4.89904e-05
-0.000166896
-0.0002713
-0.000341382
-0.000366984
-0.000354952
-0.000320199
-0.000276756
-0.000233857
-0.0001967
-0.000165992
-0.000141332
-0.000121511
-0.000105652
-9.33889e-05
-8.10653e-05
-7.10293e-05
-6.18766e-05
-5.32135e-05
-4.52032e-05
-3.77564e-05
-3.14345e-05
-2.50891e-05
-1.95098e-05
-1.52477e-05
-1.14298e-05
-8.50345e-06
-6.266e-06
-4.6529e-06
-3.36122e-06
-2.3861e-06
-1.56378e-06
0.00038851
0.000387608
0.000385665
0.000381887
0.000376546
0.000369292
0.000358644
0.00034092
0.000317792
0.000289348
0.000253479
0.000200154
0.000130992
4.68158e-05
-4.90077e-05
-0.00014823
-0.000236598
-0.000296778
-0.000323897
-0.000321777
-0.000300748
-0.000269275
-0.000234122
-0.000201002
-0.000172369
-0.000147862
-0.00012737
-0.000110661
-9.40848e-05
-8.19669e-05
-7.15974e-05
-6.21454e-05
-5.35442e-05
-4.55647e-05
-3.84043e-05
-3.16374e-05
-2.52413e-05
-2.07813e-05
-1.69448e-05
-1.3798e-05
-1.13704e-05
-9.63142e-06
-8.18199e-06
-7.03034e-06
-5.00844e-06
-3.1322e-06
0.000386694
0.000385723
0.000383045
0.000378808
0.000372599
0.000362782
0.000349545
0.000330511
0.000304479
0.000273645
0.000226486
0.000168197
9.80361e-05
1.72451e-05
-6.95725e-05
-0.000153312
-0.000224062
-0.000272712
-0.000296151
-0.000296094
-0.000280023
-0.000254126
-0.000224786
-0.000196214
-0.000170201
-0.000147418
-0.000127965
-0.000111121
-9.64675e-05
-8.4274e-05
-7.34671e-05
-6.37035e-05
-5.48415e-05
-4.67302e-05
-3.954e-05
-3.29406e-05
-2.71743e-05
-2.21709e-05
-1.77934e-05
-1.4063e-05
-1.09337e-05
-8.47392e-06
-6.41799e-06
-4.74992e-06
-3.19313e-06
-1.89444e-06
0.000385664
0.000384499
0.000381843
0.000377028
0.00036984
0.000359665
0.000345293
0.000324896
0.000299173
0.00026201
0.000216839
0.000159077
9.10657e-05
1.41637e-05
-6.69887e-05
-0.000144781
-0.000210999
-0.000258015
-0.000282089
-0.000285282
-0.000273269
-0.000251184
-0.000224668
-0.000197728
-0.000172479
-0.000149746
-0.000130273
-0.000113089
-9.83955e-05
-8.56461e-05
-7.45172e-05
-6.4577e-05
-5.56542e-05
-4.7592e-05
-4.0428e-05
-3.38817e-05
-2.78705e-05
-2.27493e-05
-1.83964e-05
-1.47644e-05
-1.17527e-05
-9.36691e-06
-7.37261e-06
-5.75834e-06
-3.92218e-06
-2.34848e-06
0.000387184
0.000386299
0.000383805
0.000380047
0.000373751
0.000365486
0.000352648
0.000334365
0.000310008
0.000276702
0.00022906
0.000173802
0.00010055
1.68226e-05
-7.28921e-05
-0.000159556
-0.000232584
-0.000282932
-0.000305912
-0.000304027
-0.000285078
-0.000256345
-0.000224746
-0.000194367
-0.000167045
-0.000143312
-0.000123071
-0.000107226
-9.3746e-05
-8.09132e-05
-7.01777e-05
-6.05393e-05
-5.18375e-05
-4.39669e-05
-3.67412e-05
-3.05238e-05
-2.47555e-05
-1.97442e-05
-1.53838e-05
-1.1625e-05
-8.49202e-06
-6.0639e-06
-4.14797e-06
-2.82749e-06
-1.77378e-06
-1.18209e-06
0.000388248
0.000387315
0.000385546
0.000381738
0.000376574
0.000368546
0.000357984
0.000340561
0.000317771
0.000281356
0.00024367
0.000191042
0.00012181
3.99001e-05
-5.10537e-05
-0.000142829
-0.000223365
-0.000280781
-0.000308009
-0.000309196
-0.000292214
-0.000264407
-0.000231611
-0.000199979
-0.000171366
-0.000147112
-0.000126303
-0.000108699
-9.10169e-05
-7.87323e-05
-6.86831e-05
-5.93374e-05
-5.091e-05
-4.27308e-05
-3.49497e-05
-2.9095e-05
-2.35e-05
-1.84813e-05
-1.40664e-05
-1.02016e-05
-6.7677e-06
-4.13469e-06
-2.06484e-06
-6.87842e-07
-2.21247e-07
-2.12251e-07
0.000390429
0.000389681
0.000388317
0.000385456
0.000381594
0.000375633
0.000362432
0.000348017
0.000334057
0.000303344
0.000264769
0.000211782
0.000141346
5.28424e-05
-4.98357e-05
-0.000157277
-0.000252244
-0.000316914
-0.000343261
-0.000336435
-0.000308495
-0.000270851
-0.00023163
-0.000196264
-0.00016638
-0.00014177
-0.000121672
-0.00010548
-9.34872e-05
-8.07329e-05
-7.02527e-05
-6.07997e-05