/*--------------------------------*- C++ -*----------------------------------*\
  =========                 |
  \\      /  F ield         | OpenFOAM: The Open Source CFD Toolbox
   \\    /   O peration     | Website:  https://openfoam.org
    \\  /    A nd           | Version:  7
     \\/     M anipulation  |
\*---------------------------------------------------------------------------*/
FoamFile
{
    version     2.0;
    format      ascii;
    class       volScalarField;
    location    "500";
    object      yPlus;
}
// * * * * * * * * * * * * * * * * * * * * * * * * * * * * * * * * * * * * * //

dimensions      [0 0 0 0 0 0 0];

internalField   uniform 0;

boundaryField
{
    XMin
    {
        type            calculated;
        value           uniform 0;
    }
    XMax
    {
        type            calculated;
        value           uniform 0;
    }
    YMin
    {
        type            calculated;
        value           uniform 0;
    }
    YMax
    {
        type            calculated;
        value           uniform 0;
    }
    ZMin
    {
        type            calculated;
        value           uniform 0;
    }
    ZMax
    {
        type            calculated;
        value           uniform 0;
    }
    ball
    {
        type            calculated;
        value           nonuniform List<scalar> 
200
(
14.5012
14.3724
18.0579
18.4219
21.4928
17.2242
21.1999
17.2765
13.6863
13.78
18.7378
22.7989
19.154
16.1479
16.3812
18.8158
22.3542
19.1758
16.3487
15.9968
18.3768
15.686
11.7446
14.34
14.3183
22.4472
14.5801
10.496
13.4507
13.4222
22.1554
16.6575
14.9899
15.8929
15.8639
21.87
16.6559
14.884
15.8636
15.8232
22.7152
18.407
18.9588
19.0149
23.1353
19.8262
23.2202
20.168
21.4462
22.2325
18.0522
19.774
21.3617
22.2413
18.2989
19.8983
17.7729
15.5932
17.9826
15.5724
17.9521
19.9199
19.8994
21.0384
24.607
24.645
18.1264
18.091
23.3488
20.0277
23.0545
19.943
22.9439
22.6026
20.249
20.3213
17.3849
18.1713
16.0035
18.1886
18.574
18.5498
21.8952
23.6265
23.5988
22.8233
19.7824
22.3645
19.9772
22.6809
22.5694
20.3523
20.3281
17.5091
18.2969
18.3578
18.6214
18.6441
20.0955
21.9405
18.5069
23.6284
23.6256
18.3606
23.3697
19.7806
23.2432
20.3667
20.428
20.5052
21.5488
21.6041
22.5006
22.5252
18.9641
19.0258
24.6853
24.6899
22.3516
18.0057
22.4358
21.9971
22.2497
18.3781
18.3292
19.1353
18.4144
22.3832
18.7049
21.9709
18.8957
21.36
21.4575
18.1272
18.1151
21.9532
24.0356
23.9446
21.6852
23.7687
23.7908
21.4897
23.0696
20.2935
20.6571
23.1363
21.7588
23.3254
23.3215
16.5277
16.5816
15.5419
15.4741
21.0192
21.4226
21.0496
14.8676
14.9206
21.0301
23.7241
23.7502
21.3015
21.4186
21.1196
16.0066
16.6514
16.6992
20.0448
20.0307
22.643
22.5534
22.6932
22.6632
20.3968
20.2979
20.5339
16.0377
15.9819
16.6754
16.7342
20.0684
22.6888
22.6388
22.6657
22.5805
20.2514
20.256
20.3401
20.679
20.5325
21.7688
23.9753
22.6782
21.6985
22.5995
19.2188
20.7128
19.0446
20.6744
23.9913
)
;
    }
}


// ************************************************************************* //
